LAMMPS data file via write_data, version 22 Jul 2025, timestep = 0, units = si

10924 atoms
3 atom types

0 0.024 xlo xhi
0 0.024 ylo yhi
0 0.032 zlo zhi

Atoms # sphere

1 1 0.0008 2650 0 0 0 0 0 0
2 1 0.0008 2650 0.000864 0 0 0 0 0
786 2 0.0008 2650 0.0013631006462957293 0.0004608563144499397 0.0005891519379546075 0 0 0
3 1 0.0008 2650 0.001728 0 0 0 0 0
787 2 0.0008 2650 0.0022265761927864718 0.00016361822515534254 0.0006927455781928119 0 0 0
4 1 0.0008 2650 0.0025919999999999997 0 0 0 0 0
788 2 0.0008 2650 0.003023864235382841 0.00026062334296227477 0.0006209508166845768 0 0 0
5 1 0.0008 2650 0.003456 0 0 0 0 0
789 2 0.0008 2650 0.0038857453990869344 0.0003872518477134188 0.0005527778863936773 0 0 0
6 1 0.0008 2650 0.00432 0 0 0 0 0
7 1 0.0008 2650 0.005183999999999999 0 0 0 0 0
1466 2 0.0008 2650 0.0049217747876470295 0.0003489240100826956 0.0007802336103542248 0 0 0
8 1 0.0008 2650 0.0060479999999999996 0 0 0 0 0
791 2 0.0008 2650 0.0062935409150357115 0.000539365274433303 0.0006887103330039787 0 0 0
9 1 0.0008 2650 0.006912 0 0 0 0 0
792 2 0.0008 2650 0.007079760704322802 0.0003919886575711933 0.000676938734688506 0 0 0
10 1 0.0008 2650 0.007776 0 0 0 0 0
793 2 0.0008 2650 0.007877082943056534 0.00045730679014981254 0.0006814664878886654 0 0 0
11 1 0.0008 2650 0.00864 0 0 0 0 0
12 1 0.0008 2650 0.009504 0 0 0 0 0
795 2 0.0008 2650 0.009529955829663877 0.000698537313887194 0.0007827076162267018 0 0 0
13 1 0.0008 2650 0.010367999999999999 0 0 0 0 0
796 2 0.0008 2650 0.010229194230424041 0.0003144169040117983 0.0007228503520302324 0 0 0
797 2 0.0008 2650 0.010911907135607059 0.0007335438503184664 0.0007214719036176531 0 0 0
14 1 0.0008 2650 0.011231999999999999 0 0 0 0 0
798 2 0.0008 2650 0.011732715101461372 0.0006696600943794144 0.0006857547080095821 0 0 0
15 1 0.0008 2650 0.012095999999999999 0 0 0 0 0
799 2 0.0008 2650 0.012525148713319221 0.0005544419385492994 0.0005999906889593822 0 0 0
16 1 0.0008 2650 0.01296 0 0 0 0 0
17 1 0.0008 2650 0.013824 0 0 0 0 0
800 2 0.0008 2650 0.01392552247987115 0.0007707560699365636 0.0007880347137403723 0 0 0
18 1 0.0008 2650 0.014688 0 0 0 0 0
802 2 0.0008 2650 0.015115382151062288 0.0004058054877272184 0.0005867826736387616 0 0 0
19 1 0.0008 2650 0.015552 0 0 0 0 0
803 2 0.0008 2650 0.015992129742440634 0.0002640622880038881 0.0006249840634270344 0 0 0
20 1 0.0008 2650 0.016416 0 0 0 0 0
21 1 0.0008 2650 0.01728 0 0 0 0 0
804 2 0.0008 2650 0.017206341073493014 0.0007529149729479321 0.0007888184200249638 0 0 0
22 1 0.0008 2650 0.018144 0 0 0 0 0
805 2 0.0008 2650 0.017965842638681943 0.000379832843870864 0.0006843803406038207 0 0 0
23 1 0.0008 2650 0.019008 0 0 0 0 0
806 2 0.0008 2650 0.018794951399495483 0.00019059586801798795 0.0007471755966483995 0 0 0
24 1 0.0008 2650 0.019872 0 0 0 0 0
807 2 0.0008 2650 0.019409693367783074 0.000745427095055715 0.0006816031586853392 0 0 0
25 1 0.0008 2650 0.020735999999999997 0 0 0 0 0
1483 2 0.0008 2650 0.02025985307637864 0.0002116085308431214 0.0006913230631644322 0 0 0
26 1 0.0008 2650 0.021599999999999998 0 0 0 0 0
809 2 0.0008 2650 0.021724409647011594 0.0004250603480414078 0.0006662176084052698 0 0 0
27 1 0.0008 2650 0.022463999999999998 0 0 0 0 0
810 2 0.0008 2650 0.022527933669967127 0.0004180465685124457 0.0006790799023889965 0 0 0
28 1 0.0008 2650 0.023327999999999998 0 0 0 0 0
29 1 0.0008 2650 0 0.000864 0 0 0 0
785 2 0.0008 2650 0.0003569506666700019 0.0011874429732355943 0.000639414316483784 0 0 0
30 1 0.0008 2650 0.000864 0.000864 0 0 0 0
31 1 0.0008 2650 0.001728 0.000864 0 0 0 0
812 2 0.0008 2650 0.0020547964188309103 0.001209962550419189 0.000643050373778819 0 0 0
32 1 0.0008 2650 0.0025919999999999997 0.000864 0 0 0 0
33 1 0.0008 2650 0.003456 0.000864 0 0 0 0
814 2 0.0008 2650 0.0033582272168462 0.001279333155507281 0.0006767117634291474 0 0 0
34 1 0.0008 2650 0.00432 0.000864 0 0 0 0
815 2 0.0008 2650 0.0041578330476687965 0.0012543481050688809 0.0006792129249270537 0 0 0
35 1 0.0008 2650 0.005183999999999999 0.000864 0 0 0 0
790 2 0.0008 2650 0.005564294128040879 0.0011438881127524456 0.000645785564285723 0 0 0
36 1 0.0008 2650 0.0060479999999999996 0.000864 0 0 0 0
817 2 0.0008 2650 0.006487923185412723 0.001323633145110098 0.0005451939392119338 0 0 0
37 1 0.0008 2650 0.006912 0.000864 0 0 0 0
818 2 0.0008 2650 0.007289405322955863 0.0011978430967736823 0.0006213806977784181 0 0 0
38 1 0.0008 2650 0.007776 0.000864 0 0 0 0
819 2 0.0008 2650 0.00797516817417281 0.0015882496652178165 0.0007621133900828548 0 0 0
39 1 0.0008 2650 0.00864 0.000864 0 0 0 0
794 2 0.0008 2650 0.008751827095028813 0.0008840938810695481 0.0007918901244855152 0 0 0
40 1 0.0008 2650 0.009504 0.000864 0 0 0 0
41 1 0.0008 2650 0.010367999999999999 0.000864 0 0 0 0
821 2 0.0008 2650 0.009737045768594077 0.0015962157803162732 0.0007539672511374567 0 0 0
42 1 0.0008 2650 0.011231999999999999 0.000864 0 0 0 0
823 2 0.0008 2650 0.0116639949885348 0.0014948048721849095 0.0006316629450769208 0 0 0
43 1 0.0008 2650 0.012095999999999999 0.000864 0 0 0 0
824 2 0.0008 2650 0.01253230329091366 0.001362049259118644 0.0005721682575129852 0 0 0
44 1 0.0008 2650 0.01296 0.000864 0 0 0 0
825 2 0.0008 2650 0.013402501540483162 0.0013274968847898421 0.0005494928876852219 0 0 0
45 1 0.0008 2650 0.013824 0.000864 0 0 0 0
826 2 0.0008 2650 0.014182619489052835 0.0015276414006438587 0.00068662860229798 0 0 0
46 1 0.0008 2650 0.014688 0.000864 0 0 0 0
827 2 0.0008 2650 0.014926886033120028 0.0012348007616965018 0.0006674577520252463 0 0 0
47 1 0.0008 2650 0.015552 0.000864 0 0 0 0
828 2 0.0008 2650 0.01572667693673822 0.001252494266600921 0.000677346394077697 0 0 0
48 1 0.0008 2650 0.016416 0.000864 0 0 0 0
829 2 0.0008 2650 0.01651902230187872 0.0011589890526739614 0.0007365853245096991 0 0 0
49 1 0.0008 2650 0.01728 0.000864 0 0 0 0
830 2 0.0008 2650 0.017210304192207516 0.0015612042728406566 0.0007812546350814066 0 0 0
50 1 0.0008 2650 0.018144 0.000864 0 0 0 0
831 2 0.0008 2650 0.017947505569916058 0.001276595818880739 0.0006566240457676231 0 0 0
51 1 0.0008 2650 0.019008 0.000864 0 0 0 0
52 1 0.0008 2650 0.019872 0.000864 0 0 0 0
833 2 0.0008 2650 0.01943999999784369 0.0015441353805476148 0.0006477420542077995 0 0 0
53 1 0.0008 2650 0.020735999999999997 0.000864 0 0 0 0
834 2 0.0008 2650 0.02048534281102721 0.001574992768736007 0.0007447300617284286 0 0 0
808 2 0.0008 2650 0.021043349433256895 0.0008386489545473174 0.0007381690688989963 0 0 0
54 1 0.0008 2650 0.021599999999999998 0.000864 0 0 0 0
835 2 0.0008 2650 0.021806441140818287 0.0013703637991621645 0.0006851849155830827 0 0 0
55 1 0.0008 2650 0.022463999999999998 0.000864 0 0 0 0
836 2 0.0008 2650 0.022692322910469374 0.001591822925546287 0.0007545359040329015 0 0 0
56 1 0.0008 2650 0.023327999999999998 0.000864 0 0 0 0
57 1 0.0008 2650 0 0.001728 0 0 0 0
58 1 0.0008 2650 0.000864 0.001728 0 0 0 0
811 2 0.0008 2650 0.001028194612981664 0.002234399599670928 0.0006965357419321062 0 0 0
59 1 0.0008 2650 0.001728 0.001728 0 0 0 0
838 2 0.0008 2650 0.001846809574859297 0.0023025064819409856 0.0007362593059358341 0 0 0
60 1 0.0008 2650 0.0025919999999999997 0.001728 0 0 0 0
813 2 0.0008 2650 0.0026726013637818615 0.001694737634641393 0.0007957925536883897 0 0 0
61 1 0.0008 2650 0.003456 0.001728 0 0 0 0
841 2 0.0008 2650 0.0038903536277210306 0.0021590491436497628 0.0005192328499352656 0 0 0
62 1 0.0008 2650 0.00432 0.001728 0 0 0 0
816 2 0.0008 2650 0.004735007874380124 0.0018749129403980167 0.0006684609027388749 0 0 0
63 1 0.0008 2650 0.005183999999999999 0.001728 0 0 0 0
842 2 0.0008 2650 0.005499147275388779 0.0021886063394528045 0.0006179310911945804 0 0 0
64 1 0.0008 2650 0.0060479999999999996 0.001728 0 0 0 0
843 2 0.0008 2650 0.006300934999742381 0.0021300394267134396 0.0006438268865726062 0 0 0
65 1 0.0008 2650 0.006912 0.001728 0 0 0 0
844 2 0.0008 2650 0.007349598417842814 0.002147541423148662 0.0005311936102622756 0 0 0
66 1 0.0008 2650 0.007776 0.001728 0 0 0 0
67 1 0.0008 2650 0.00864 0.001728 0 0 0 0
820 2 0.0008 2650 0.008774921085608586 0.0016837695449664744 0.0007873224391758521 0 0 0
845 2 0.0008 2650 0.00810157921668454 0.0023775671371194995 0.0007086818098257087 0 0 0
68 1 0.0008 2650 0.009504 0.001728 0 0 0 0
69 1 0.0008 2650 0.010367999999999999 0.001728 0 0 0 0
822 2 0.0008 2650 0.010897517765338113 0.0016971242594678647 0.0007393571334766004 0 0 0
70 1 0.0008 2650 0.011231999999999999 0.001728 0 0 0 0
71 1 0.0008 2650 0.012095999999999999 0.001728 0 0 0 0
72 1 0.0008 2650 0.01296 0.001728 0 0 0 0
851 2 0.0008 2650 0.013101088767790037 0.002155219519423303 0.0006639196346483273 0 0 0
73 1 0.0008 2650 0.013824 0.001728 0 0 0 0
852 2 0.0008 2650 0.013898251207744298 0.0022877908193098925 0.0007361704922971038 0 0 0
74 1 0.0008 2650 0.014688 0.001728 0 0 0 0
853 2 0.0008 2650 0.014685145648656694 0.0021569124663890823 0.0006753039753699345 0 0 0
75 1 0.0008 2650 0.015552 0.001728 0 0 0 0
854 2 0.0008 2650 0.015485135537318577 0.0021603592624125636 0.0006702528007662433 0 0 0
76 1 0.0008 2650 0.016416 0.001728 0 0 0 0
855 2 0.0008 2650 0.01670428482667962 0.0021655981571191015 0.0006124691845613757 0 0 0
77 1 0.0008 2650 0.01728 0.001728 0 0 0 0
78 1 0.0008 2650 0.018144 0.001728 0 0 0 0
857 2 0.0008 2650 0.018116265002426836 0.0022784195617937143 0.0007354577070844086 0 0 0
79 1 0.0008 2650 0.019008 0.001728 0 0 0 0
832 2 0.0008 2650 0.018646407860362136 0.0016621147570411237 0.0007105684372397078 0 0 0
80 1 0.0008 2650 0.019872 0.001728 0 0 0 0
859 2 0.0008 2650 0.01977615294895677 0.0022660391834413898 0.0007242671110909014 0 0 0
81 1 0.0008 2650 0.020735999999999997 0.001728 0 0 0 0
82 1 0.0008 2650 0.021599999999999998 0.001728 0 0 0 0
861 2 0.0008 2650 0.022031999999503043 0.00216 0.0005164803761580817 0 0 0
83 1 0.0008 2650 0.022463999999999998 0.001728 0 0 0 0
84 1 0.0008 2650 0.023327999999999998 0.001728 0 0 0 0
85 1 0.0008 2650 0 0.0025919999999999997 0 0 0 0
837 2 0.0008 2650 0.0004653278642865184 0.002995608775058703 0.0005642147523577208 0 0 0
86 1 0.0008 2650 0.000864 0.0025919999999999997 0 0 0 0
864 2 0.0008 2650 0.0012970134483329535 0.003017933969434427 0.0005230696668059602 0 0 0
87 1 0.0008 2650 0.001728 0.0025919999999999997 0 0 0 0
88 1 0.0008 2650 0.0025919999999999997 0.0025919999999999997 0 0 0 0
839 2 0.0008 2650 0.0026040939198952438 0.002552710694393441 0.0007989429446417761 0 0 0
89 1 0.0008 2650 0.003456 0.0025919999999999997 0 0 0 0
840 2 0.0008 2650 0.0033864379968647942 0.00271947051728154 0.0007876090471530522 0 0 0
90 1 0.0008 2650 0.00432 0.0025919999999999997 0 0 0 0
867 2 0.0008 2650 0.004658368361619054 0.0028578100259956485 0.0006744270574571498 0 0 0
91 1 0.0008 2650 0.005183999999999999 0.0025919999999999997 0 0 0 0
92 1 0.0008 2650 0.0060479999999999996 0.0025919999999999997 0 0 0 0
93 1 0.0008 2650 0.006912 0.0025919999999999997 0 0 0 0
94 1 0.0008 2650 0.007776 0.0025919999999999997 0 0 0 0
95 1 0.0008 2650 0.00864 0.0025919999999999997 0 0 0 0
871 2 0.0008 2650 0.008233972026368346 0.0031627431133036945 0.0006238069090744122 0 0 0
846 2 0.0008 2650 0.008895633692716726 0.002473669430993963 0.000748765229643437 0 0 0
96 1 0.0008 2650 0.009504 0.0025919999999999997 0 0 0 0
847 2 0.0008 2650 0.009692562332425039 0.002403857378012657 0.000754351745285749 0 0 0
97 1 0.0008 2650 0.010367999999999999 0.0025919999999999997 0 0 0 0
874 2 0.0008 2650 0.010262964630879116 0.0031465570766414986 0.0007302143304277021 0 0 0
849 2 0.0008 2650 0.01129102511961095 0.0024585003807404307 0.0007865805721248155 0 0 0
98 1 0.0008 2650 0.011231999999999999 0.0025919999999999997 0 0 0 0
876 2 0.0008 2650 0.011855657718653738 0.003161249073144936 0.0007038164980449398 0 0 0
99 1 0.0008 2650 0.012095999999999999 0.0025919999999999997 0 0 0 0
850 2 0.0008 2650 0.01235078006503425 0.0025350414262878 0.0007562024995425254 0 0 0
100 1 0.0008 2650 0.01296 0.0025919999999999997 0 0 0 0
877 2 0.0008 2650 0.012800225408726254 0.0031966511569898035 0.0007397518976457157 0 0 0
101 1 0.0008 2650 0.013824 0.0025919999999999997 0 0 0 0
879 2 0.0008 2650 0.014255998954163981 0.003024000057794609 0.0005164812872343451 0 0 0
102 1 0.0008 2650 0.014688 0.0025919999999999997 0 0 0 0
880 2 0.0008 2650 0.015058170732439865 0.0029403496625982403 0.0006179012743807417 0 0 0
103 1 0.0008 2650 0.015552 0.0025919999999999997 0 0 0 0
104 1 0.0008 2650 0.016416 0.0025919999999999997 0 0 0 0
881 2 0.0008 2650 0.016774916016309743 0.003023538596260761 0.0005705451798861326 0 0 0
105 1 0.0008 2650 0.01728 0.0025919999999999997 0 0 0 0
856 2 0.0008 2650 0.017550231193750248 0.0028618878530891293 0.0007029924778130203 0 0 0
106 1 0.0008 2650 0.018144 0.0025919999999999997 0 0 0 0
107 1 0.0008 2650 0.019008 0.0025919999999999997 0 0 0 0
858 2 0.0008 2650 0.01891317055540522 0.0024886860361739726 0.0007876395746253055 0 0 0
108 1 0.0008 2650 0.019872 0.0025919999999999997 0 0 0 0
884 2 0.0008 2650 0.019483233002525698 0.0031049821534430426 0.0006209175794122664 0 0 0
109 1 0.0008 2650 0.020735999999999997 0.0025919999999999997 0 0 0 0
860 2 0.0008 2650 0.020725133540436102 0.0029480352131452075 0.0007163245110157613 0 0 0
110 1 0.0008 2650 0.021599999999999998 0.0025919999999999997 0 0 0 0
111 1 0.0008 2650 0.022463999999999998 0.0025919999999999997 0 0 0 0
862 2 0.0008 2650 0.022895999998035457 0.002425116219572056 0.000652323362462612 0 0 0
112 1 0.0008 2650 0.023327999999999998 0.0025919999999999997 0 0 0 0
113 1 0.0008 2650 0 0.003456 0 0 0 0
863 2 0.0008 2650 0.0004027135075476551 0.003792160636794398 0.0006041265197713335 0 0 0
114 1 0.0008 2650 0.000864 0.003456 0 0 0 0
890 2 0.0008 2650 0.0012313608278576758 0.003888840448856967 0.0005652918567879403 0 0 0
115 1 0.0008 2650 0.001728 0.003456 0 0 0 0
891 2 0.0008 2650 0.0020323570141154777 0.003974865019693785 0.0006544070859786884 0 0 0
116 1 0.0008 2650 0.0025919999999999997 0.003456 0 0 0 0
865 2 0.0008 2650 0.002517998614930948 0.003348006692365918 0.0007893647656995611 0 0 0
117 1 0.0008 2650 0.003456 0.003456 0 0 0 0
866 2 0.0008 2650 0.0033085059638038026 0.003742074183578933 0.0007327220329525166 0 0 0
118 1 0.0008 2650 0.00432 0.003456 0 0 0 0
893 2 0.0008 2650 0.004501941449802745 0.003929286020624339 0.0006742389421817144 0 0 0
119 1 0.0008 2650 0.005183999999999999 0.003456 0 0 0 0
868 2 0.0008 2650 0.005281272487383031 0.0037583312705038313 0.0007346830584270316 0 0 0
120 1 0.0008 2650 0.0060479999999999996 0.003456 0 0 0 0
869 2 0.0008 2650 0.006276562614367736 0.0038078819050958897 0.000681129211030978 0 0 0
121 1 0.0008 2650 0.006912 0.003456 0 0 0 0
870 2 0.0008 2650 0.007033642105513286 0.0033870795258187734 0.0007876741876215838 0 0 0
122 1 0.0008 2650 0.007776 0.003456 0 0 0 0
897 2 0.0008 2650 0.007854310903735411 0.003887364825789951 0.0006691723968144359 0 0 0
123 1 0.0008 2650 0.00864 0.003456 0 0 0 0
872 2 0.0008 2650 0.00886086370180679 0.0039106284386432 0.0006508718053667711 0 0 0
124 1 0.0008 2650 0.009504 0.003456 0 0 0 0
873 2 0.0008 2650 0.00963730855177554 0.0036438093732995103 0.0007662239965934442 0 0 0
125 1 0.0008 2650 0.010367999999999999 0.003456 0 0 0 0
875 2 0.0008 2650 0.011059146752577803 0.003223104049502537 0.0007455740099558228 0 0 0
900 2 0.0008 2650 0.01062841661673145 0.003886933011975007 0.0006216766970603484 0 0 0
126 1 0.0008 2650 0.011231999999999999 0.003456 0 0 0 0
127 1 0.0008 2650 0.012095999999999999 0.003456 0 0 0 0
902 2 0.0008 2650 0.01252962403172159 0.003929875294685021 0.0005500720143484983 0 0 0
128 1 0.0008 2650 0.01296 0.003456 0 0 0 0
878 2 0.0008 2650 0.013391082421871923 0.0037833021439718714 0.000589102835427206 0 0 0
129 1 0.0008 2650 0.013824 0.003456 0 0 0 0
130 1 0.0008 2650 0.014688 0.003456 0 0 0 0
131 1 0.0008 2650 0.015552 0.003456 0 0 0 0
906 2 0.0008 2650 0.01560564944057532 0.0038880000000029134 0.0006711912594882459 0 0 0
132 1 0.0008 2650 0.016416 0.003456 0 0 0 0
133 1 0.0008 2650 0.01728 0.003456 0 0 0 0
882 2 0.0008 2650 0.017679877418556724 0.0036865374494383526 0.0006555952320593239 0 0 0
134 1 0.0008 2650 0.018144 0.003456 0 0 0 0
883 2 0.0008 2650 0.018578617230834097 0.0038880091181527077 0.0005186696574547525 0 0 0
135 1 0.0008 2650 0.019008 0.003456 0 0 0 0
136 1 0.0008 2650 0.019872 0.003456 0 0 0 0
885 2 0.0008 2650 0.020295189396263888 0.0036209002611545236 0.0006585731669082781 0 0 0
137 1 0.0008 2650 0.020735999999999997 0.003456 0 0 0 0
886 2 0.0008 2650 0.02110705971484374 0.003650212930126791 0.0006816127899116985 0 0 0
138 1 0.0008 2650 0.021599999999999998 0.003456 0 0 0 0
887 2 0.0008 2650 0.021905559224944946 0.0036975734112245856 0.0006988509548276788 0 0 0
139 1 0.0008 2650 0.022463999999999998 0.003456 0 0 0 0
888 2 0.0008 2650 0.022954921403498554 0.003241154730612653 0.0006743872262805887 0 0 0
140 1 0.0008 2650 0.023327999999999998 0.003456 0 0 0 0
141 1 0.0008 2650 0 0.00432 0 0 0 0
889 2 0.0008 2650 0.00037782846944664066 0.004590402830421383 0.0006514257093648972 0 0 0
142 1 0.0008 2650 0.000864 0.00432 0 0 0 0
916 2 0.0008 2650 0.0013480688442601158 0.004751999596522989 0.0005559034537781096 0 0 0
143 1 0.0008 2650 0.001728 0.00432 0 0 0 0
917 2 0.0008 2650 0.002234923823992894 0.00479587178338524 0.0006015433736678876 0 0 0
144 1 0.0008 2650 0.0025919999999999997 0.00432 0 0 0 0
145 1 0.0008 2650 0.003456 0.00432 0 0 0 0
892 2 0.0008 2650 0.003631696260650058 0.00473139961103707 0.0006632365177969898 0 0 0
146 1 0.0008 2650 0.00432 0.00432 0 0 0 0
147 1 0.0008 2650 0.005183999999999999 0.00432 0 0 0 0
894 2 0.0008 2650 0.005619610225778554 0.004496010132361319 0.0006523080184579282 0 0 0
148 1 0.0008 2650 0.0060479999999999996 0.00432 0 0 0 0
895 2 0.0008 2650 0.006424178688205362 0.0045935625230354 0.0006508952541497267 0 0 0
149 1 0.0008 2650 0.006912 0.00432 0 0 0 0
896 2 0.0008 2650 0.0071388976310143215 0.004234730427031632 0.0007623952503968036 0 0 0
150 1 0.0008 2650 0.007776 0.00432 0 0 0 0
151 1 0.0008 2650 0.00864 0.00432 0 0 0 0
898 2 0.0008 2650 0.008329055010990126 0.004564913321021874 0.0006953160834580335 0 0 0
152 1 0.0008 2650 0.009504 0.00432 0 0 0 0
899 2 0.0008 2650 0.009450991491117102 0.004444600253250367 0.0007884576110262807 0 0 0
153 1 0.0008 2650 0.010367999999999999 0.00432 0 0 0 0
154 1 0.0008 2650 0.011231999999999999 0.00432 0 0 0 0
901 2 0.0008 2650 0.011666894397189594 0.004076515949639302 0.0006320731621262868 0 0 0
155 1 0.0008 2650 0.012095999999999999 0.00432 0 0 0 0
928 2 0.0008 2650 0.01234707520755335 0.004753318037385872 0.0006256818290802017 0 0 0
156 1 0.0008 2650 0.01296 0.00432 0 0 0 0
903 2 0.0008 2650 0.013139791800606421 0.004671546288860808 0.00069577894420957 0 0 0
157 1 0.0008 2650 0.013824 0.00432 0 0 0 0
904 2 0.0008 2650 0.01402387926406201 0.004426454060025007 0.0007672996863637197 0 0 0
158 1 0.0008 2650 0.014688 0.00432 0 0 0 0
905 2 0.0008 2650 0.015120061630872738 0.004633991357856957 0.0005956998092011999 0 0 0
159 1 0.0008 2650 0.015552 0.00432 0 0 0 0
160 1 0.0008 2650 0.016416 0.00432 0 0 0 0
907 2 0.0008 2650 0.016163425431016384 0.004488068070830245 0.0007402426232290286 0 0 0
161 1 0.0008 2650 0.01728 0.00432 0 0 0 0
908 2 0.0008 2650 0.01684810125236242 0.004006841171666657 0.0005961646602823749 0 0 0
162 1 0.0008 2650 0.018144 0.00432 0 0 0 0
909 2 0.0008 2650 0.017768423264830892 0.004481087251364321 0.000687747533022796 0 0 0
163 1 0.0008 2650 0.019008 0.00432 0 0 0 0
910 2 0.0008 2650 0.019172693339862986 0.0046691464318717405 0.0007006945373896427 0 0 0
164 1 0.0008 2650 0.019872 0.00432 0 0 0 0
911 2 0.0008 2650 0.01998319561656534 0.004598103261591223 0.0007418273565231891 0 0 0
165 1 0.0008 2650 0.020735999999999997 0.00432 0 0 0 0
912 2 0.0008 2650 0.02078359128324504 0.004559089999391712 0.000761979414044258 0 0 0
166 1 0.0008 2650 0.021599999999999998 0.00432 0 0 0 0
913 2 0.0008 2650 0.02157301567563821 0.004432418437160542 0.0007916021038923234 0 0 0
167 1 0.0008 2650 0.022463999999999998 0.00432 0 0 0 0
914 2 0.0008 2650 0.02263016993369404 0.004035277740259701 0.0007289431707838487 0 0 0
168 1 0.0008 2650 0.023327999999999998 0.00432 0 0 0 0
169 1 0.0008 2650 0 0.005183999999999999 0 0 0 0
915 2 0.0008 2650 0.0007675288645093437 0.005274101718246444 0.0007958038517174325 0 0 0
170 1 0.0008 2650 0.000864 0.005183999999999999 0 0 0 0
171 1 0.0008 2650 0.001728 0.005183999999999999 0 0 0 0
172 1 0.0008 2650 0.0025919999999999997 0.005183999999999999 0 0 0 0
918 2 0.0008 2650 0.003057322723774118 0.005537649806180399 0.0005966474786153152 0 0 0
173 1 0.0008 2650 0.003456 0.005183999999999999 0 0 0 0
174 1 0.0008 2650 0.00432 0.005183999999999999 0 0 0 0
919 2 0.0008 2650 0.004346620047185041 0.005066951957504064 0.0007909478442126334 0 0 0
175 1 0.0008 2650 0.005183999999999999 0.005183999999999999 0 0 0 0
920 2 0.0008 2650 0.005146059882824775 0.005190095430803073 0.0007990709859334177 0 0 0
176 1 0.0008 2650 0.0060479999999999996 0.005183999999999999 0 0 0 0
921 2 0.0008 2650 0.0060124833507599115 0.0053156441892948806 0.0007882944281321062 0 0 0
177 1 0.0008 2650 0.006912 0.005183999999999999 0 0 0 0
922 2 0.0008 2650 0.006838574362122572 0.005263015962604795 0.0007926945879921322 0 0 0
178 1 0.0008 2650 0.007776 0.005183999999999999 0 0 0 0
923 2 0.0008 2650 0.007555977339691906 0.004916314999381691 0.0007210649142222542 0 0 0
179 1 0.0008 2650 0.00864 0.005183999999999999 0 0 0 0
924 2 0.0008 2650 0.008220855781003053 0.0053568972639798105 0.0006592277914673658 0 0 0
180 1 0.0008 2650 0.009504 0.005183999999999999 0 0 0 0
925 2 0.0008 2650 0.009060246398090638 0.005230191270210591 0.000679239795792124 0 0 0
181 1 0.0008 2650 0.010367999999999999 0.005183999999999999 0 0 0 0
926 2 0.0008 2650 0.009954157224292411 0.0050556471843461225 0.0006725024046557933 0 0 0
182 1 0.0008 2650 0.011231999999999999 0.005183999999999999 0 0 0 0
927 2 0.0008 2650 0.011581867574436288 0.0049778489269411705 0.0006892721743043137 0 0 0
183 1 0.0008 2650 0.012095999999999999 0.005183999999999999 0 0 0 0
184 1 0.0008 2650 0.01296 0.005183999999999999 0 0 0 0
929 2 0.0008 2650 0.013231779828356832 0.005468632302043877 0.0006965056270092002 0 0 0
185 1 0.0008 2650 0.013824 0.005183999999999999 0 0 0 0
930 2 0.0008 2650 0.013989251907942575 0.005232171536930594 0.0007981777723364683 0 0 0
186 1 0.0008 2650 0.014688 0.005183999999999999 0 0 0 0
931 2 0.0008 2650 0.014782384715889394 0.005335473883479882 0.0007798379012743185 0 0 0
187 1 0.0008 2650 0.015552 0.005183999999999999 0 0 0 0
932 2 0.0008 2650 0.015545745349160816 0.00556275254408821 0.0007046327789384274 0 0 0
188 1 0.0008 2650 0.016416 0.005183999999999999 0 0 0 0
933 2 0.0008 2650 0.016293409248954793 0.005283302906853347 0.0007842897485291119 0 0 0
189 1 0.0008 2650 0.01728 0.005183999999999999 0 0 0 0
934 2 0.0008 2650 0.01698452219836863 0.0048623834759978545 0.0006773937109663253 0 0 0
190 1 0.0008 2650 0.018144 0.005183999999999999 0 0 0 0
935 2 0.0008 2650 0.01770895919118476 0.0053403641661622005 0.0006569186773739762 0 0 0
191 1 0.0008 2650 0.019008 0.005183999999999999 0 0 0 0
936 2 0.0008 2650 0.018576027113032606 0.005316826226324366 0.0006601831549412625 0 0 0
192 1 0.0008 2650 0.019872 0.005183999999999999 0 0 0 0
937 2 0.0008 2650 0.01971078603964572 0.005349919560722137 0.0007658757759350484 0 0 0
193 1 0.0008 2650 0.020735999999999997 0.005183999999999999 0 0 0 0
938 2 0.0008 2650 0.020921394295219466 0.005365146026924541 0.0007568454539225122 0 0 0
194 1 0.0008 2650 0.021599999999999998 0.005183999999999999 0 0 0 0
939 2 0.0008 2650 0.022051084595790273 0.005203900445195189 0.0006849820100526168 0 0 0
195 1 0.0008 2650 0.022463999999999998 0.005183999999999999 0 0 0 0
940 2 0.0008 2650 0.02313275275543273 0.005266934935113503 0.0007738126541176599 0 0 0
196 1 0.0008 2650 0.023327999999999998 0.005183999999999999 0 0 0 0
197 1 0.0008 2650 0 0.0060479999999999996 0 0 0 0
941 2 0.0008 2650 0.0002747831268804483 0.005905870656397341 0.0007383562751091257 0 0 0
198 1 0.0008 2650 0.000864 0.0060479999999999996 0 0 0 0
942 2 0.0008 2650 0.001313205562719155 0.005841308581236848 0.0006520921651304786 0 0 0
199 1 0.0008 2650 0.001728 0.0060479999999999996 0 0 0 0
943 2 0.0008 2650 0.002260387625504688 0.005607613603149739 0.0005921019458094484 0 0 0
200 1 0.0008 2650 0.0025919999999999997 0.0060479999999999996 0 0 0 0
201 1 0.0008 2650 0.003456 0.0060479999999999996 0 0 0 0
945 2 0.0008 2650 0.003835043744067528 0.006239365517887027 0.0006780138295746469 0 0 0
202 1 0.0008 2650 0.00432 0.0060479999999999996 0 0 0 0
203 1 0.0008 2650 0.005183999999999999 0.0060479999999999996 0 0 0 0
946 2 0.0008 2650 0.005223138315637514 0.0059866542037760855 0.0007967529247138354 0 0 0
204 1 0.0008 2650 0.0060479999999999996 0.0060479999999999996 0 0 0 0
947 2 0.0008 2650 0.006015155574965194 0.006239225989820578 0.0007761629392115085 0 0 0
205 1 0.0008 2650 0.006912 0.0060479999999999996 0 0 0 0
948 2 0.0008 2650 0.006795826294721167 0.006065282860187909 0.000793852412030962 0 0 0
206 1 0.0008 2650 0.007776 0.0060479999999999996 0 0 0 0
207 1 0.0008 2650 0.00864 0.0060479999999999996 0 0 0 0
950 2 0.0008 2650 0.008230772989165573 0.006156651765219543 0.0006787712897989049 0 0 0
208 1 0.0008 2650 0.009504 0.0060479999999999996 0 0 0 0
209 1 0.0008 2650 0.010367999999999999 0.0060479999999999996 0 0 0 0
952 2 0.0008 2650 0.009935370395309659 0.006196094612768529 0.0006573692551936361 0 0 0
953 2 0.0008 2650 0.010923773594602493 0.005616403672558522 0.0005989332856395605 0 0 0
210 1 0.0008 2650 0.011231999999999999 0.0060479999999999996 0 0 0 0
211 1 0.0008 2650 0.012095999999999999 0.0060479999999999996 0 0 0 0
954 2 0.0008 2650 0.012455861110224576 0.005616006690543353 0.0005691055993926274 0 0 0
212 1 0.0008 2650 0.01296 0.0060479999999999996 0 0 0 0
955 2 0.0008 2650 0.013087353819456006 0.0062589114074562135 0.0007611158483913022 0 0 0
213 1 0.0008 2650 0.013824 0.0060479999999999996 0 0 0 0
956 2 0.0008 2650 0.013864452119623177 0.006072202696586526 0.0007986102187150948 0 0 0
214 1 0.0008 2650 0.014688 0.0060479999999999996 0 0 0 0
215 1 0.0008 2650 0.015552 0.0060479999999999996 0 0 0 0
958 2 0.0008 2650 0.015591496717651834 0.006361187512273272 0.0007350873245589872 0 0 0
216 1 0.0008 2650 0.016416 0.0060479999999999996 0 0 0 0
959 2 0.0008 2650 0.01633894211840906 0.0060825443349380405 0.0007957739803775255 0 0 0
217 1 0.0008 2650 0.01728 0.0060479999999999996 0 0 0 0
960 2 0.0008 2650 0.01708992372806019 0.006346870376788227 0.0007173148967654058 0 0 0
218 1 0.0008 2650 0.018144 0.0060479999999999996 0 0 0 0
961 2 0.0008 2650 0.017890131730541343 0.0062770348059138295 0.0007232921555922323 0 0 0
219 1 0.0008 2650 0.019008 0.0060479999999999996 0 0 0 0
962 2 0.0008 2650 0.018672891451746616 0.006111033241020357 0.0007237043833189902 0 0 0
220 1 0.0008 2650 0.019872 0.0060479999999999996 0 0 0 0
963 2 0.0008 2650 0.01948271622784362 0.006113582665447639 0.0006958100048254945 0 0 0
221 1 0.0008 2650 0.020735999999999997 0.0060479999999999996 0 0 0 0
964 2 0.0008 2650 0.021108870246652367 0.0063934156803949664 0.000617783144753557 0 0 0
222 1 0.0008 2650 0.021599999999999998 0.0060479999999999996 0 0 0 0
965 2 0.0008 2650 0.022137588991821437 0.006006670968041635 0.0007292103437205523 0 0 0
223 1 0.0008 2650 0.022463999999999998 0.0060479999999999996 0 0 0 0
966 2 0.0008 2650 0.02297428414339203 0.006049164399173627 0.0007175868836070279 0 0 0
224 1 0.0008 2650 0.023327999999999998 0.0060479999999999996 0 0 0 0
225 1 0.0008 2650 0 0.006912 0 0 0 0
967 2 0.0008 2650 0.00027696313944062335 0.006706381618321796 0.0007222576088926112 0 0 0
226 1 0.0008 2650 0.000864 0.006912 0 0 0 0
227 1 0.0008 2650 0.001728 0.006912 0 0 0 0
968 2 0.0008 2650 0.0018037335701482835 0.006480187244292031 0.0006691891314214547 0 0 0
944 2 0.0008 2650 0.003024231462112094 0.006480751102009231 0.0005173459913323944 0 0 0
228 1 0.0008 2650 0.0025919999999999997 0.006912 0 0 0 0
229 1 0.0008 2650 0.003456 0.006912 0 0 0 0
970 2 0.0008 2650 0.003910655677539091 0.007166830418705711 0.0006522409197800673 0 0 0
230 1 0.0008 2650 0.00432 0.006912 0 0 0 0
971 2 0.0008 2650 0.004538930905563923 0.006618089387620579 0.0007113082991295849 0 0 0
231 1 0.0008 2650 0.005183999999999999 0.006912 0 0 0 0
972 2 0.0008 2650 0.005319402773076936 0.006780790341611003 0.0007775726126924821 0 0 0
232 1 0.0008 2650 0.0060479999999999996 0.006912 0 0 0 0
973 2 0.0008 2650 0.006063526068834779 0.00707407838180275 0.0007975392719498581 0 0 0
233 1 0.0008 2650 0.006912 0.006912 0 0 0 0
974 2 0.0008 2650 0.006842023787458856 0.006889847856756789 0.0007966257389381698 0 0 0
949 2 0.0008 2650 0.0074841815217682114 0.006440826802746805 0.0006352614839635987 0 0 0
234 1 0.0008 2650 0.007776 0.006912 0 0 0 0
235 1 0.0008 2650 0.00864 0.006912 0 0 0 0
976 2 0.0008 2650 0.008470892882970472 0.006913221658251935 0.0007819243579487015 0 0 0
951 2 0.0008 2650 0.009097024599102098 0.0064799822331842874 0.0005364362118537294 0 0 0
236 1 0.0008 2650 0.009504 0.006912 0 0 0 0
237 1 0.0008 2650 0.010367999999999999 0.006912 0 0 0 0
978 2 0.0008 2650 0.010274696311210816 0.007108225813727294 0.0007699284409734644 0 0 0
979 2 0.0008 2650 0.01105399226849186 0.006792708270198411 0.0007707676036611886 0 0 0
238 1 0.0008 2650 0.011231999999999999 0.006912 0 0 0 0
239 1 0.0008 2650 0.012095999999999999 0.006912 0 0 0 0
980 2 0.0008 2650 0.0122632725882635 0.00655614197542462 0.0006966932176699669 0 0 0
240 1 0.0008 2650 0.01296 0.006912 0 0 0 0
981 2 0.0008 2650 0.012933019744050802 0.007043399680149431 0.0007886736467613789 0 0 0
241 1 0.0008 2650 0.013824 0.006912 0 0 0 0
982 2 0.0008 2650 0.01371363351332285 0.006865834096570044 0.0007910043629884247 0 0 0
957 2 0.0008 2650 0.014666971817613554 0.0064056943735533375 0.0007152677479576063 0 0 0
242 1 0.0008 2650 0.014688 0.006912 0 0 0 0
983 2 0.0008 2650 0.01445165110058973 0.007176168067147897 0.0007172925367901686 0 0 0
243 1 0.0008 2650 0.015552 0.006912 0 0 0 0
984 2 0.0008 2650 0.01549279372959542 0.007154689789917305 0.0007600084344146436 0 0 0
244 1 0.0008 2650 0.016416 0.006912 0 0 0 0