LAMMPS data file via write_data, version 22 Jul 2025, timestep = 25000, units = si

5222 atoms
3 atom types
230 bonds
2 bond types

0 0.016 xlo xhi
0 0.016 ylo yhi
0 0.032 zlo zhi

Atoms # bpm/sphere

1 0 1 0.0007886040687561035 2650 0 0 0 0 0 0
362 0 2 0.0007848668575286866 2650 0.0006304360070343902 0.0015038740909535232 0.0012391839095733524 0 0 0
2 0 1 0.0008240767860412598 2650 0.000864 0 0 0 0 0
3 0 1 0.0008488445091247559 2650 0.001728 0 0 0 0 0
4 0 1 0.0008017904758453369 2650 0.0025919999999999997 0 0 0 0 0
20 0 1 0.0008369690895080567 2650 0 0.000864 0 0 0 0
21 0 1 0.00078618483543396 2650 0.000864 0.000864 0 0 0 0
381 0 2 0.0008465081214904785 2650 0.001452031158959021 0.0006890467204970104 0.002081261895571981 0 0 0
22 0 1 0.0007793038082122803 2650 0.001728 0.000864 0 0 0 0
382 0 2 0.0008290421867370606 2650 0.002611607087847768 0.002317808025007175 0.002198629782206413 0 0 0
23 0 1 0.0008753173637390138 2650 0.0025919999999999997 0.000864 0 0 0 0
39 0 1 0.0008156274032592774 2650 0 0.001728 0 0 0 0
40 0 1 0.0008552786159515382 2650 0.000864 0.001728 0 0 0 0
41 0 1 0.0007907310009002686 2650 0.001728 0.001728 0 0 0 0
42 0 1 0.0008512284564971924 2650 0.0025919999999999997 0.001728 0 0 0 0
58 0 1 0.0008111660194396973 2650 0 0.0025919999999999997 0 0 0 0
59 0 1 0.0007240646743774414 2650 0.000864 0.0025919999999999997 0 0 0 0
60 0 1 0.0007801332378387451 2650 0.001728 0.0025919999999999997 0 0 0 0
61 0 1 0.0007532413196563721 2650 0.0025919999999999997 0.0025919999999999997 0 0 0 0
685 0 2 0.0007999613666534424 2650 0.00020159790977267503 0.0005621176339741602 0.002376628068677529 1 1 0
418 0 2 0.0008679323482513428 2650 0.0012624870942153465 0.0021062317605065255 0.0011851373435232528 0 0 0
398 0 2 0.0007286369609832764 2650 0.0006175883849318774 0.002504727559844908 0.0006790287106777486 0 0 0
419 0 2 0.0007791074657440186 2650 0.002090167643879924 0.002506442601329142 0.000813317506089269 0 0 0
365 0 2 0.0008746146965026856 2650 0.0035497294190323498 0.0007011128463565719 0.0017187364682951576 0 0 0
400 0 2 0.0007868253421783448 2650 0.004316625133391754 0.002265080594039817 0.0017939622304729052 0 0 0
5 0 1 0.000851611204147339 2650 0.003456 0 0 0 0 0
6 0 1 0.0008646899795532227 2650 0.00432 0 0 0 0 0
7 0 1 0.0008051636409759522 2650 0.005183999999999999 0 0 0 0 0
24 0 1 0.0008014656257629395 2650 0.003456 0.000864 0 0 0 0
25 0 1 0.0007438907146453858 2650 0.00432 0.000864 0 0 0 0
26 0 1 0.0008229043006896973 2650 0.005183999999999999 0.000864 0 0 0 0
43 0 1 0.0008428637027740478 2650 0.003456 0.001728 0 0 0 0
384 0 2 0.0007218641185760498 2650 0.005254787888292808 0.0017120010683182524 0.001011913432711234 0 0 0
44 0 1 0.0008450694274902343 2650 0.00432 0.001728 0 0 0 0
45 0 1 0.0007800525283813477 2650 0.005183999999999999 0.001728 0 0 0 0
62 0 1 0.0008658546447753906 2650 0.003456 0.0025919999999999997 0 0 0 0
63 0 1 0.0008101617813110352 2650 0.00432 0.0025919999999999997 0 0 0 0
64 0 1 0.0007594607639312745 2650 0.005183999999999999 0.0025919999999999997 0 0 0 0
671 0 2 0.0008604563426971436 2650 0.005884278139228757 0.0006503801793740747 0.0018829836219671542 0 1 0
366 0 2 0.0007676088428497314 2650 0.005671517570505301 0.001685994016176953 0.0020429339986074795 0 0 0
385 0 2 0.0007969906330108642 2650 0.00619969585240456 0.002410746221740732 0.001833506302352329 0 0 0
672 0 2 0.0007438207912445068 2650 0.006447914698775685 0.0006412861717638205 0.0011095246869083208 0 1 0
1013 0 2 0.0007382429599761964 2650 0.00759804090918302 0.00037059802162440065 0.0023751912792503776 0 0 0
996 0 2 0.0007855492305755615 2650 0.007885101228396174 0.0006765641911584502 0.0011270902416734702 0 1 0
8 0 1 0.0008005121994018555 2650 0.0060479999999999996 0 0 0 0 0
9 0 1 0.0007645119953155518 2650 0.006912 0 0 0 0 0
10 0 1 0.0008361889266967773 2650 0.007776 0 0 0 0 0
27 0 1 0.0007804489421844483 2650 0.0060479999999999996 0.000864 0 0 0 0
692 0 2 0.0007374697303771973 2650 0.00639998226396227 0.0016633938918547112 0.0013571908278163973 0 0 0
711 0 2 0.0007559387111663819 2650 0.007118960762098926 0.001182706109108389 0.000671130034668001 0 0 0
28 0 1 0.0007518990612030029 2650 0.006912 0.000864 0 0 0 0
29 0 1 0.000790997018814087 2650 0.007776 0.000864 0 0 0 0
386 0 2 0.0008372000312805176 2650 0.0061862173317951165 0.00236594920688687 0.0008115107618815706 0 0 0
46 0 1 0.0007844949913024902 2650 0.0060479999999999996 0.001728 0 0 0 0
387 0 2 0.0007950142574310303 2650 0.007013634806324287 0.0023314168674731075 0.000853746929163129 0 0 0
47 0 1 0.0007770409774780273 2650 0.006912 0.001728 0 0 0 0
406 0 2 0.0007977920532226563 2650 0.0077858866599851105 0.0016202776840833182 0.000828733623731212 0 0 0
48 0 1 0.0008275499725341797 2650 0.007776 0.001728 0 0 0 0
65 0 1 0.000722211275100708 2650 0.0060479999999999996 0.0025919999999999997 0 0 0 0
66 0 1 0.0007773200798034669 2650 0.006912 0.0025919999999999997 0 0 0 0
67 0 1 0.0008466814804077149 2650 0.007776 0.0025919999999999997 0 0 0 0
710 0 2 0.00082535475730896 2650 0.00795779997026236 0.002280371054928484 0.002401600376258381 0 0 0
709 0 2 0.0007353885269165039 2650 0.007065272280901549 0.0025675363138361338 0.0018519964351508766 0 0 0
1016 0 2 0.0008780744647979737 2650 0.00896256347973838 0.0006641204123476114 0.0009943241086593324 0 0 0
654 0 2 0.0007469782829284668 2650 0.00826978808128914 0.0005222356085164249 0.0019457853603076856 0 1 0
1035 0 2 0.000762869462966919 2650 0.008312015824584712 0.0015109535854058987 0.002124589377846022 0 0 0
11 0 1 0.0007536913967132569 2650 0.00864 0 0 0 0 0
12 0 1 0.0008032919788360597 2650 0.009504 0 0 0 0 0
13 0 1 0.0008150940227508545 2650 0.010367999999999999 0 0 0 0 0
30 0 1 0.0007318361377716064 2650 0.00864 0.000864 0 0 0 0
31 0 1 0.0007214993572235108 2650 0.009504 0.000864 0 0 0 0
696 0 2 0.0007267034816741943 2650 0.010007083896867585 0.00122128815652566 0.000568885748222915 0 0 0
32 0 1 0.0007887962627410889 2650 0.010367999999999999 0.000864 0 0 0 0
49 0 1 0.0008002959823608399 2650 0.00864 0.001728 0 0 0 0
731 0 2 0.0007369563961029053 2650 0.008814918942983703 0.001227445048604303 0.0015764431895814513 0 0 0
50 0 1 0.0007906301021575928 2650 0.009504 0.001728 0 0 0 0
732 0 2 0.0007901654338836671 2650 0.008148709778022942 0.0023300797406365743 0.0010169671859981938 0 0 0
51 0 1 0.0008203880882263184 2650 0.010367999999999999 0.001728 0 0 0 0
68 0 1 0.0008374399566650391 2650 0.00864 0.0025919999999999997 0 0 0 0
69 0 1 0.0008313111209869385 2650 0.009504 0.0025919999999999997 0 0 0 0
70 0 1 0.0007433395862579346 2650 0.010367999999999999 0.0025919999999999997 0 0 0 0
1021 0 2 0.0008730814456939697 2650 0.010423488673103486 0.00028848288775514425 0.0009570752323149036 0 0 0
715 0 2 0.0008295337677001953 2650 0.008912435449529021 0.0023328565865379913 0.001354797455729085 0 0 0
1059 0 2 0.0008517107772827149 2650 0.009561167575632683 0.001541109366602124 0.0016048877390159196 0 0 0
410 0 2 0.0008643959712982179 2650 0.010378365451182977 0.002108479785155774 0.0007969732370120092 0 0 0
14 0 1 0.0008120809555053712 2650 0.011231999999999999 0 0 0 0 0
15 0 1 0.0007991716670989991 2650 0.012095999999999999 0 0 0 0 0
16 0 1 0.000722374792098999 2650 0.01296 0 0 0 0 0
697 0 2 0.000839603853225708 2650 0.01083398097275691 0.0013111580577950736 0.0005568811960698171 0 0 0
33 0 1 0.0007948552417755127 2650 0.011231999999999999 0.000864 0 0 0 0
392 0 2 0.0008562912845611573 2650 0.0117303887182452 0.0010634829638006033 0.0007232924392163533 0 0 0
34 0 1 0.0008129804706573486 2650 0.012095999999999999 0.000864 0 0 0 0
393 0 2 0.0008227018737792969 2650 0.012818371719540493 0.0011266273727356666 0.0007543111718511739 0 0 0
35 0 1 0.0007992492580413819 2650 0.01296 0.000864 0 0 0 0
52 0 1 0.0007629846286773682 2650 0.011231999999999999 0.001728 0 0 0 0
53 0 1 0.0007530945205688477 2650 0.012095999999999999 0.001728 0 0 0 0
411 0 2 0.0007880420780181886 2650 0.011861101490939625 0.0019372317445338824 0.0010759670679514576 0 0 0
54 0 1 0.0008461182498931885 2650 0.01296 0.001728 0 0 0 0
71 0 1 0.0008214688110351562 2650 0.011231999999999999 0.0025919999999999997 0 0 0 0
72 0 1 0.0008215988063812257 2650 0.012095999999999999 0.0025919999999999997 0 0 0 0
73 0 1 0.0008072750949859619 2650 0.01296 0.0025919999999999997 0 0 0 0
734 0 2 0.000743173360824585 2650 0.011267019758344819 0.00023482898678820887 0.001288580827426088 0 0 0
717 0 2 0.0007417174911499024 2650 0.011322606936948214 0.0008954392113647233 0.0019818877794038864 0 0 0
752 0 2 0.0008630480480194092 2650 0.011058089449480675 0.0016188339294464418 0.0015650099141915137 0 0 0
736 0 2 0.000731838083267212 2650 0.012073433526699439 0.0015212118713290453 0.002109710657333587 0 0 0
412 0 2 0.0008052167987823486 2650 0.012831269920937702 0.0018560018918156657 0.0012416309430383094 0 0 0
428 0 2 0.0007317636299133301 2650 0.01167850740890794 0.0023366683770861996 0.0018640935927102201 0 0 0
753 0 2 0.0007290680503845216 2650 0.010584060971897846 0.0022371785925470546 0.0023429661949154698 0 0 0
430 0 2 0.0007404562854766846 2650 0.012406586571866421 0.002452309152592766 0.0008992740732736886 0 0 0
394 0 2 0.0007277951717376709 2650 0.013352433077878869 0.00039177515332271615 0.0013319473985658357 0 0 0
17 0 1 0.0008382467555999757 2650 0.013824 0 0 0 0 0
375 0 2 0.0008239034938812256 2650 0.014971618865319175 0.0005840548458195701 0.0010242229456981688 0 0 0
18 0 1 0.0007381733036041261 2650 0.014688 0 0 0 0 0
19 0 1 0.0008478353977203369 2650 0.015552 0 0 0 0 0
378 0 2 0.0008124765777587891 2650 0.015116778855524883 0.0008635684959515898 0.0025621990601208443 0 0 0
36 0 1 0.0007932651138305664 2650 0.013824 0.000864 0 0 0 0
395 0 2 0.0008350069999694824 2650 0.013770833998425054 0.0014207704158804024 0.002087030686719421 0 0 0
37 0 1 0.0007215183448791504 2650 0.014688 0.000864 0 0 0 0
38 0 1 0.0008067492580413819 2650 0.015552 0.000864 0 0 0 0
55 0 1 0.0007917727851867676 2650 0.013824 0.001728 0 0 0 0
56 0 1 0.0007742743301391602 2650 0.014688 0.001728 0 0 0 0
57 0 1 0.0007688848590850831 2650 0.015552 0.001728 0 0 0 0
397 0 2 0.0007790917873382569 2650 0.015932462513431632 0.0016642451218112767 0.0007959237692564318 0 0 0
74 0 1 0.0008718835258483887 2650 0.013824 0.0025919999999999997 0 0 0 0
75 0 1 0.0007601022148132324 2650 0.014688 0.0025919999999999997 0 0 0 0
76 0 1 0.0007829807376861572 2650 0.015552 0.0025919999999999997 0 0 0 0
379 0 2 0.000726432228088379 2650 0.015280338538940423 0.0012707287379085568 0.0008047690647996015 0 0 0
396 0 2 0.0008206855964660645 2650 0.014971328040866224 0.0021085601309019336 0.0008526944624373842 0 0 0
415 0 2 0.0008196585750579835 2650 0.015860938591865974 0.0024876594732603083 0.0009794883872436288 0 0 0
791 0 2 0.0008663503170013428 2650 0.013788969763795695 0.0022905948361668783 0.001070485647402838 0 0 0
77 0 1 0.0007938109874725342 2650 0 0.003456 0 0 0 0
417 0 2 0.0008401906490325929 2650 0.0004785311494595941 0.0038254777106167875 0.0007011143437031031 0 0 0
78 0 1 0.000844585599899292 2650 0.000864 0.003456 0 0 0 0
435 0 2 0.000837108383178711 2650 0.0013169434655533985 0.0038703931068061314 0.0005826245133696369 0 0 0
79 0 1 0.0007960124206542969 2650 0.001728 0.003456 0 0 0 0
80 0 1 0.000729442663192749 2650 0.0025919999999999997 0.003456 0 0 0 0
96 0 1 0.0008298000240325929 2650 0 0.00432 0 0 0 0
434 0 2 0.0007827701663970948 2650 0.0013740558527677864 0.004500034588007863 0.0014695719140263447 0 0 0
97 0 1 0.0007669935417175293 2650 0.000864 0.00432 0 0 0 0
98 0 1 0.0008414973449707031 2650 0.001728 0.00432 0 0 0 0
99 0 1 0.0007348585224151612 2650 0.0025919999999999997 0.00432 0 0 0 0
115 0 1 0.0007620650959014893 2650 0 0.005183999999999999 0 0 0 0
116 0 1 0.0008279388523101807 2650 0.000864 0.005183999999999999 0 0 0 0
117 0 1 0.0007366882419586182 2650 0.001728 0.005183999999999999 0 0 0 0
118 0 1 0.0007750840473175049 2650 0.0025919999999999997 0.005183999999999999 0 0 0 0
416 0 2 0.0008125880146026611 2650 0.0010551027154741405 0.0038132321331198625 0.0024839117680897603 0 0 0
741 0 2 0.000757315731048584 2650 0.0017714999367660993 0.0027730567798579754 0.0014912108690631858 0 0 0
758 0 2 0.000826731767654419 2650 0.0030585080542699606 0.004676964515475533 0.0017824050066361074 0 0 0
1064 0 2 0.0007847534465789795 2650 0.0030105164020857943 0.0041966292127344615 0.0006497247847620751 0 0 0
453 0 2 0.0007585710525512695 2650 0.0038010776998355466 0.004630855109816125 0.0007502267611084999 0 0 0
760 0 2 0.0008347441673278809 2650 0.004216287248839629 0.0030858931650557015 0.002032551626150341 0 0 0
1083 0 2 0.0008214862251281739 2650 0.004462423616958249 0.0040184341583617885 0.0016939669617251061 0 0 0
1065 0 2 0.0008669426631927491 2650 0.005471882701074593 0.00410003416318505 0.0020925142347956297 0 0 0
778 0 2 0.0007229135131835938 2650 0.003646673097891555 0.005098868020793053 0.0013976446963434356 0 0 0
437 0 2 0.0007306226634979249 2650 0.005369540971569126 0.0029815815422456495 0.0013016701290945688 0 0 0
454 0 2 0.0007509028434753419 2650 0.004580927647591259 0.004464047670693304 0.0009586605441029938 0 0 0
81 0 1 0.0007468168830871583 2650 0.003456 0.003456 0 0 0 0
82 0 1 0.000872166919708252 2650 0.00432 0.003456 0 0 0 0
83 0 1 0.000828952579498291 2650 0.005183999999999999 0.003456 0 0 0 0
436 0 2 0.0008049001693725586 2650 0.0049322626025567915 0.0035369415105676472 0.0008146074414392482 0 0 0
100 0 1 0.0007632621955871582 2650 0.003456 0.00432 0 0 0 0
473 0 2 0.0008169910717010498 2650 0.005201347944647255 0.004742032154871953 0.0015450779654761259 0 0 0
101 0 1 0.0007984469509124757 2650 0.00432 0.00432 0 0 0 0
456 0 2 0.0007394109630584718 2650 0.00535552911016657 0.005071697850959067 0.0007669496108210767 0 0 0
102 0 1 0.0007673938083648682 2650 0.005183999999999999 0.00432 0 0 0 0
119 0 1 0.0008611113643646241 2650 0.003456 0.005183999999999999 0 0 0 0
120 0 1 0.0007420671463012696 2650 0.00432 0.005183999999999999 0 0 0 0
121 0 1 0.0008483493804931641 2650 0.005183999999999999 0.005183999999999999 0 0 0 0
1084 0 2 0.0008258447360992432 2650 0.004826785244097787 0.004836599720816017 0.002431234091405877 0 0 0
421 0 2 0.0007753383922576905 2650 0.006004368981659625 0.003272374505351015 0.0008518712691390151 0 0 0
438 0 2 0.0008727413749694825 2650 0.005936842208506405 0.004299288653862744 0.0009326168170908397 0 0 0
455 0 2 0.0007386880207061768 2650 0.00647597495132149 0.003466115765581773 0.002306535883741351 0 0 0
402 0 2 0.000753964958190918 2650 0.007062872342623219 0.0038771698982067626 0.0025477252561995505 0 0 0
422 0 2 0.0008641507434844971 2650 0.006550205766185325 0.004403067096190306 0.0016145606695913196 0 0 0
439 0 2 0.0007744737815856934 2650 0.0064662111945081886 0.005069263344162146 0.0011338228609392073 0 0 0
403 0 2 0.0008391464710235596 2650 0.007154596558532965 0.003582653963216819 0.0014336193688956058 0 0 0
405 0 2 0.0007406675434112549 2650 0.007287595385643278 0.0045082704614000475 0.0019157517591342594 0 0 0
84 0 1 0.0008223341751098633 2650 0.0060479999999999996 0.003456 0 0 0 0
424 0 2 0.0008362041759490968 2650 0.006802235899815777 0.005348813573774581 0.0019952925233906863 0 0 0
85 0 1 0.0008061514377593994 2650 0.006912 0.003456 0 0 0 0
425 0 2 0.0008798226261138916 2650 0.0073247965483612745 0.004040899492188702 0.0007262111271869674 0 0 0
86 0 1 0.0007862403869628907 2650 0.007776 0.003456 0 0 0 0
103 0 1 0.0007814414405822754 2650 0.0060479999999999996 0.00432 0 0 0 0
104 0 1 0.0008767831707000733 2650 0.006912 0.00432 0 0 0 0
442 0 2 0.0008315229988098145 2650 0.007122057934097588 0.004872331416463932 0.0006820285607427732 0 0 0
105 0 1 0.0007849990558624268 2650 0.007776 0.00432 0 0 0 0
122 0 1 0.0007829455757141113 2650 0.0060479999999999996 0.005183999999999999 0 0 0 0
123 0 1 0.0007227951145172119 2650 0.006912 0.005183999999999999 0 0 0 0
124 0 1 0.0008614293384552002 2650 0.007776 0.005183999999999999 0 0 0 0
767 0 2 0.0007286760902404785 2650 0.0074229140295639 0.005064502317085107 0.0014402578445222433 0 0 0
750 0 2 0.0007530766010284424 2650 0.007591520810429176 0.0033905626463139756 0.0020713418744276336 0 0 0
443 0 2 0.0008135466861724854 2650 0.00788277253382133 0.005260330359098724 0.0008502725090330307 0 0 0
1111 0 2 0.000794520606994629 2650 0.007607223309455881 0.0028539055704056614 0.0012966842232924828 0 0 0
1075 0 2 0.0007788567733764648 2650 0.009796642908833983 0.0027083335708595452 0.001487565928711496 0 0 0
391 0 2 0.0008564505100250244 2650 0.008689294407340786 0.0032007786119391157 0.0019771876333213477 0 0 0
733 0 2 0.0007600270652770996 2650 0.00896416704566469 0.0038599644568595008 0.002561854667219513 0 0 0
390 0 2 0.0008684593868255615 2650 0.009096311077147421 0.004123160617006593 0.0015766295213727331 0 0 0
748 0 2 0.0007270605182647706 2650 0.008011285257576856 0.0035525840714948622 0.0007126235028326699 0 0 0
87 0 1 0.0007542955112457276 2650 0.00864 0.003456 0 0 0 0
88 0 1 0.0008071588039398193 2650 0.009504 0.003456 0 0 0 0
89 0 1 0.0007279850482940674 2650 0.010367999999999999 0.003456 0 0 0 0
106 0 1 0.0008363198566436768 2650 0.00864 0.00432 0 0 0 0
107 0 1 0.0007563857078552247 2650 0.009504 0.00432 0 0 0 0
408 0 2 0.0008568299961090088 2650 0.008028297293879962 0.004204211215122418 0.0012107256489277633 0 0 0
444 0 2 0.0007594871044158936 2650 0.00852069741739172 0.005219701591304285 0.0013089133328359184 0 0 0
769 0 2 0.0008082799053192139 2650 0.008861226955677518 0.004703711970436589 0.0007884077729719402 0 0 0
108 0 1 0.0008586667537689209 2650 0.010367999999999999 0.00432 0 0 0 0
125 0 1 0.0008258037090301514 2650 0.00864 0.005183999999999999 0 0 0 0
126 0 1 0.0007305736827850342 2650 0.009504 0.005183999999999999 0 0 0 0
127 0 1 0.0008581398582458497 2650 0.010367999999999999 0.005183999999999999 0 0 0 0
751 0 2 0.0008507774257659913 2650 0.008326400485133474 0.004300058156646934 0.002152151317899887 0 0 0
1758 0 2 0.0008218637371063233 2650 0.00875125291472944 0.005051819158516977 0.002046872609016155 0 0 0
1435 0 2 0.0008282571220397949 2650 0.009352420511054133 0.004931303399784892 0.0014542603471055116 0 0 0
409 0 2 0.0007334729671478272 2650 0.010462702278990066 0.003232459646493405 0.0006892213399909871 0 0 0
1112 0 2 0.0008196644401550293 2650 0.010028624269509569 0.0038545593351745275 0.001814358300839992 0 0 0
427 0 2 0.0008224127864837646 2650 0.010969294818842642 0.002831265969130235 0.0012682242856610728 0 0 0
90 0 1 0.0007801463603973389 2650 0.011231999999999999 0.003456 0 0 0 0
426 0 2 0.0008666280460357666 2650 0.011433504250011797 0.003571629499105493 0.000789931838593689 0 0 0
446 0 2 0.0008263942909240723 2650 0.011793765192080773 0.002865325380199564 0.00125081398253829 0 0 0
91 0 1 0.0008320541000366212 2650 0.012095999999999999 0.003456 0 0 0 0
92 0 1 0.0007521271419525146 2650 0.01296 0.003456 0 0 0 0
429 0 2 0.0007260426330566406 2650 0.012824120404117621 0.0037967907112598075 0.0011589905433751853 0 0 0
109 0 1 0.0007983861637115479 2650 0.011231999999999999 0.00432 0 0 0 0
464 0 2 0.000872783317565918 2650 0.011455802730173026 0.0044352070253949345 0.0008905529136073175 0 0 0
110 0 1 0.0008723552227020264 2650 0.012095999999999999 0.00432 0 0 0 0
447 0 2 0.0007409057807922363 2650 0.011452081785273906 0.0035680080137223385 0.001766933248422965 0 0 0
111 0 1 0.0007315648937225342 2650 0.01296 0.00432 0 0 0 0
128 0 1 0.0008478274154663086 2650 0.011231999999999999 0.005183999999999999 0 0 0 0
129 0 1 0.0007570172595977784 2650 0.012095999999999999 0.005183999999999999 0 0 0 0
130 0 1 0.0007388800144195557 2650 0.01296 0.005183999999999999 0 0 0 0
463 0 2 0.000726273946762085 2650 0.011060616477594877 0.005156721345604373 0.0010339035801775814 0 0 0
788 0 2 0.0007641446685791016 2650 0.012077474174742534 0.004950015120216972 0.0013767433197270098 0 0 0
93 0 1 0.0007994524192810059 2650 0.013824 0.003456 0 0 0 0
94 0 1 0.0008457226848602295 2650 0.014688 0.003456 0 0 0 0
450 0 2 0.0007297921752929688 2650 0.015020854196851225 0.003967564419569943 0.00055435506052751 0 0 0
432 0 2 0.0007799877452850342 2650 0.01587806844263386 0.0032817409972825695 0.0008277823544668422 0 0 0
95 0 1 0.0007586956405639649 2650 0.015552 0.003456 0 0 0 0
448 0 2 0.0007753522682189942 2650 0.013960924881035132 0.004547142900333055 0.0017711234238090307 0 0 0
112 0 1 0.0008402260494232178 2650 0.013824 0.00432 0 0 0 0
113 0 1 0.0007429962253570557 2650 0.014688 0.00432 0 0 0 0
114 0 1 0.0007544912910461426 2650 0.015552 0.00432 0 0 0 0
451 0 2 0.0007778829193115235 2650 0.01549321237623828 0.004218188460924432 0.0011770388201301138 0 0 0
131 0 1 0.0007554987907409668 2650 0.013824 0.005183999999999999 0 0 0 0
132 0 1 0.0007614036655426026 2650 0.014688 0.005183999999999999 0 0 0 0
133 0 1 0.0008000131988525391 2650 0.015552 0.005183999999999999 0 0 0 0
431 0 2 0.0007631418228149415 2650 0.014850933205589903 0.0029909902255575915 0.0006551515949761547 0 0 0
759 0 2 0.0007375459575653077 2650 0.0024254763185391293 0.005467524875259369 0.0010625294793548362 0 0 0
776 0 2 0.0007282777881622315 2650 0.0026845554250868008 0.005989395270850696 0.0018555926926859614 0 0 0
452 0 2 0.0007223659324645997 2650 0.002178550475962833 0.00612988662253678 0.0012472238485562118 0 0 0
470 0 2 0.0007352473735809326 2650 0.001842465135174098 0.005372407018813001 0.0017741324381848624 0 0 0
134 0 1 0.0007660789394378663 2650 0 0.0060479999999999996 0 0 0 0
488 0 2 0.0007218165874481201 2650 0.0015856184545132495 0.0063934989104759135 0.0008203279585714142 0 0 0
135 0 1 0.0007953603172302247 2650 0.000864 0.0060479999999999996 0 0 0 0
136 0 1 0.0008631881237030029 2650 0.001728 0.0060479999999999996 0 0 0 0
490 0 2 0.0007477387523651123 2650 0.0021807961170454077 0.006849063992177729 0.0008243815208850363 0 0 0
137 0 1 0.0007204948997497559 2650 0.0025919999999999997 0.0060479999999999996 0 0 0 0
153 0 1 0.0008221635913848878 2650 0 0.006912 0 0 0 0
154 0 1 0.0007834891510009766 2650 0.000864 0.006912 0 0 0 0
507 0 2 0.0008184488201141357 2650 0.0018966213416025314 0.008001656439135236 0.0014558075445124247 0 0 0
155 0 1 0.0008041714668273926 2650 0.001728 0.006912 0 0 0 0
508 0 2 0.0008159996128082275 2650 0.002268990856547598 0.007624638458613331 0.0007660718628280826 0 0 0
156 0 1 0.0008502178478240967 2650 0.0025919999999999997 0.006912 0 0 0 0
172 0 1 0.0007541047286987305 2650 0 0.007776 0 0 0 0
506 0 2 0.000874487476348877 2650 0.001029942315635982 0.007974204487506598 0.0012086966765047602 0 0 0
173 0 1 0.0008654138565063477 2650 0.000864 0.007776 0 0 0 0
174 0 1 0.0008163194274902344 2650 0.001728 0.007776 0 0 0 0
175 0 1 0.0008718303203582765 2650 0.0025919999999999997 0.007776 0 0 0 0
794 0 2 0.0007350108432769776 2650 0.0021110200047181893 0.0068936095523474145 0.0019387892961849917 0 0 0
812 0 2 0.0008118922233581543 2650 0.0016038337641933569 0.007467792281383239 0.00246057503667123 0 0 0
487 0 2 0.0008086132907867432 2650 0.0011504625725783446 0.007212727214192931 0.001661455419259068 1 0 0
829 0 2 0.0007971190738677979 2650 0.0004783184649894293 0.0075170894150205884 0.000689361191194557 1 0 0
468 0 2 0.000782367057800293 2650 0.0012881164708447934 0.006025970674813782 0.0019659101697114562 1 0 0
832 0 2 0.0007680593585968017 2650 0.0024540867392784014 0.007878290150185962 0.002567147495511826 0 0 0
486 0 2 0.0007910140991210938 2650 0.00031061205070999375 0.007112758609319369 0.0015487512326178153 1 0 0
489 0 2 0.0007939316844940186 2650 0.0028288630570451334 0.007171735537038329 0.0023128477457220295 0 0 0
471 0 2 0.0008259114646911622 2650 0.0029471924386737015 0.0061718116821944105 0.0010670429218394301 0 0 0
777 0 2 0.0007881558227539063 2650 0.0032506409115156043 0.006120972531922791 0.0023469217609184178 0 0 0
797 0 2 0.0007781169986724853 2650 0.004254337868626925 0.00596228194141577 0.0019935485462577967 0 0 0
472 0 2 0.0007655268573760987 2650 0.0037540048216493276 0.005658021397914647 0.0007664523281334195 0 0 0
491 0 2 0.0008106896495819092 2650 0.0046950587325956085 0.005345591883738406 0.001259219820354714 0 0 0
474 0 2 0.0007569500255584717 2650 0.005228428860991371 0.006056015470093112 0.0011369935238087034 0 0 0
527 0 2 0.0007471646022796631 2650 0.002976657529230062 0.007024306291771685 0.0006994613333052227 0 0 0
138 0 1 0.0008207287216186524 2650 0.003456 0.0060479999999999996 0 0 0 0
492 0 2 0.0007656793022155763 2650 0.004000730798134272 0.006378126460987438 0.0005983632360664935 0 0 0
509 0 2 0.0007412423706054688 2650 0.0038160185516571805 0.006355013669319542 0.0013656610795429723 0 0 0
139 0 1 0.0007429026699066162 2650 0.00432 0.0060479999999999996 0 0 0 0
493 0 2 0.0007364694499969482 2650 0.004769367738572991 0.006482697172788209 0.0004200634731191461 0 0 0
140 0 1 0.0007274693870544434 2650 0.005183999999999999 0.0060479999999999996 0 0 0 0
545 0 2 0.0008743310165405274 2650 0.003068860162100676 0.008081640684137158 0.0015367380152162887 0 0 0
157 0 1 0.0008406495380401612 2650 0.003456 0.006912 0 0 0 0
510 0 2 0.0007728845882415771 2650 0.003998132850111919 0.00744689321032874 0.0022112219082009357 0 0 0
158 0 1 0.0007623805141448974 2650 0.00432 0.006912 0 0 0 0
818 0 2 0.0007236160755157471 2650 0.00525654684088836 0.007364457377808696 0.0012721924457635284 0 0 0
159 0 1 0.0007232211589813232 2650 0.005183999999999999 0.006912 0 0 0 0
176 0 1 0.0007327837657928468 2650 0.003456 0.007776 0 0 0 0
177 0 1 0.0008528776931762696 2650 0.00432 0.007776 0 0 0 0
178 0 1 0.00076840407371521 2650 0.005183999999999999 0.007776 0 0 0 0
796 0 2 0.0008491819381713868 2650 0.0039362619893695255 0.00656571327723595 0.002451241769184939 0 0 0
1121 0 2 0.0007514692974090576 2650 0.004696379900129632 0.006927465765523912 0.0025193635017995123 0 0 0
816 0 2 0.0008397957992553711 2650 0.004944594348225808 0.0066901832440338545 0.0015516751855938272 0 0 0
528 0 2 0.0008181121635437012 2650 0.004888611365255973 0.007950379772917609 0.0007227332947935212 0 0 0
1176 0 2 0.0008511556339263917 2650 0.004186103802982619 0.0075736254661358075 0.0011015925680942418 0 0 0
762 0 2 0.0008320137977600098 2650 0.005447517038861376 0.006266955456979628 0.002079574149753729 0 0 0
440 0 2 0.0007513583660125733 2650 0.005969488423221397 0.0056244756314750705 0.0022032534174523354 0 0 0
441 0 2 0.0007648445320129395 2650 0.006551785297450891 0.005875976677007269 0.001037609071936888 0 0 0
835 0 2 0.0008390433692932129 2650 0.005402919598512404 0.007716773248442065 0.0021596201065827293 0 0 0
799 0 2 0.0007560037612915039 2650 0.005721697561059034 0.006787803370084591 0.0013900503355477874 0 0 0
458 0 2 0.0007401515007019043 2650 0.006352423465167589 0.0062691684358658776 0.00202859230897036 0 0 0
475 0 2 0.0007560426902770996 2650 0.005972929871927215 0.0054990821615271725 0.0006980291917827004 0 0 0
459 0 2 0.000805370969772339 2650 0.006859513859703346 0.007083133043744799 0.002095626729462924 0 0 0
460 0 2 0.0007332567405700684 2650 0.00731319534255646 0.005631006951326744 0.0004793804261603974 0 0 0
494 0 2 0.0007242406845092774 2650 0.0055554923801219664 0.006428496607725403 0.0004940458044533923 0 0 0
141 0 1 0.0008603913593292237 2650 0.0060479999999999996 0.0060479999999999996 0 0 0 0
476 0 2 0.0007609719181060792 2650 0.006185289273136843 0.006830271930887305 0.0007802810049077981 0 0 0
142 0 1 0.000768652400970459 2650 0.006912 0.0060479999999999996 0 0 0 0
477 0 2 0.0008497001552581787 2650 0.0074802430570737105 0.006957842517794097 0.0007536782261342489 0 0 0
143 0 1 0.0007721230697631836 2650 0.007776 0.0060479999999999996 0 0 0 0
511 0 2 0.0007414991760253906 2650 0.005638568790445033 0.007320144987537729 0.0005204058840980037 0 0 0
160 0 1 0.000772959442138672 2650 0.0060479999999999996 0.006912 0 0 0 0
819 0 2 0.0008634762477874756 2650 0.006708119173492982 0.007441262103684174 0.0009422408265814248 0 0 0
512 0 2 0.0008259218215942384 2650 0.00599843863561022 0.007843497769714054 0.0013591214018251275 0 0 0
161 0 1 0.0008055681610107423 2650 0.006912 0.006912 0 0 0 0
162 0 1 0.0007721261501312256 2650 0.007776 0.006912 0 0 0 0
495 0 2 0.0007489759826660156 2650 0.007909012668783553 0.007980720763136884 0.0007625541401412294 0 0 0
179 0 1 0.000823778305053711 2650 0.0060479999999999996 0.007776 0 0 0 0
180 0 1 0.0008017248821258545 2650 0.006912 0.007776 0 0 0 0
181 0 1 0.0007729223251342774 2650 0.007776 0.007776 0 0 0 0
1162 0 2 0.000803662281036377 2650 0.006063463659234437 0.007179686167433133 0.0019751721264788164 0 0 0
803 0 2 0.0007281046485900879 2650 0.007465779038135767 0.007514025313396435 0.0019047810215826332 0 0 0
785 0 2 0.000807366247177124 2650 0.007015665142621024 0.006477096625262015 0.0012473879952600599 0 0 0
461 0 2 0.0007768889904022217 2650 0.007893224581128374 0.006089757810808792 0.0007700639776055066 0 0 0
1127 0 2 0.0007792540454864503 2650 0.007626671898519795 0.006842797341146032 0.001600646840105086 0 0 0
786 0 2 0.0008441874313354493 2650 0.007489993766408333 0.005836198350547638 0.0019339044975196207 0 0 0
496 0 2 0.0007398129177093506 2650 0.007922953579281036 0.007708254229207795 0.002514014281919539 0 0 0
445 0 2 0.0007584533786773682 2650 0.009254704269813976 0.005927815490233677 0.0016276648483843658 0 0 0
1129 0 2 0.0007475190353393556 2650 0.00835681239212038 0.00617801941600251 0.002527089653023699 0 0 0
462 0 2 0.0007746961879730225 2650 0.008846875660148027 0.005614233974858113 0.00064226251493668 0 0 0
480 0 2 0.0007616336250305176 2650 0.008296551331164182 0.006475926397694184 0.0014949332072528776 0 0 0
478 0 2 0.0007621357345581055 2650 0.008393246371898857 0.007166745578818906 0.0007866691294552272 0 0 0
144 0 1 0.000818456735610962 2650 0.00864 0.0060479999999999996 0 0 0 0
479 0 2 0.0007497261810302735 2650 0.008208766108140265 0.007098590690148071 0.0020307297107148986 0 0 0
145 0 1 0.0008333018398284913 2650 0.009504 0.0060479999999999996 0 0 0 0
498 0 2 0.0008318509292602539 2650 0.009474291013472932 0.006350544874525846 0.0008114660051360132 0 0 0
146 0 1 0.000816274995803833 2650 0.010367999999999999 0.0060479999999999996 0 0 0 0