LAMMPS data file via write_data, version 22 Jul 2025, timestep = 25000, units = si

12892 atoms
3 atom types
13821 bonds
1 bond types

0 0.024 xlo xhi
0 0.024 ylo yhi
0 0.032 zlo zhi

Atoms # bpm/sphere

1 0 1 0.0008 2650 0 0 0 0 0 0
2 0 1 0.0008 2650 0.000864 0 0 0 0 0
3 0 1 0.0008 2650 0.001728 0 0 0 0 0
29 0 1 0.0008 2650 0 0.000864 0 0 0 0
30 0 1 0.0008 2650 0.000864 0.000864 0 0 0 0
31 0 1 0.0008 2650 0.001728 0.000864 0 0 0 0
57 0 1 0.0008 2650 0 0.001728 0 0 0 0
58 0 1 0.0008 2650 0.000864 0.001728 0 0 0 0
59 0 1 0.0008 2650 0.001728 0.001728 0 0 0 0
785 0 2 0.0008 2650 2.1721794174169157e-05 4.7282353953918803e-07 0.0007997276274289382 0 0 0
786 0 2 0.0008 2650 0.0008761740703792694 2.5627100526073712e-05 0.0008004845078145924 0 0 0
787 0 2 0.0008 2650 0.0017593628693557469 7.959419721369018e-07 0.000799384338826969 0 0 0
813 0 2 0.0008 2650 1.1130300934696742e-05 0.0008762475592738034 0.0008508093850515616 0 0 0
814 0 2 0.0008 2650 0.0008332702717488793 0.0008759669197333097 0.000799319337119478 0 0 0
815 0 2 0.0008 2650 0.0017375209205289885 0.0008406696719382824 0.0008115675688760214 0 0 0
842 0 2 0.0008 2650 0.0008755905872736576 0.0017226862419501224 0.0007998955450978771 0 0 0
843 0 2 0.0008 2650 0.0017417338469027086 0.0016924098513072684 0.00080949111991097 0 0 0
1570 0 2 0.0008 2650 0.0008804265067133783 5.102296770388138e-07 0.0016248050466050623 0 0 0
1598 0 2 0.0008 2650 0.0008510710786632972 0.0008571611947369149 0.001677425586658447 0 0 0
1599 0 2 0.0008 2650 0.0017191837282139865 0.0008542936229452125 0.0016495210470391219 0 0 0
1626 0 2 0.0008 2650 0.000862970851834876 0.001734079084939601 0.001647800045702488 0 0 0
1627 0 2 0.0008 2650 0.0017539674973062248 0.001694744835285023 0.0016452260668227809 0 0 0
2354 0 2 0.0008 2650 0.000888079311284629 8.946014747163677e-06 0.002424795065326915 0 0 0
2411 0 2 0.0008 2650 0.0017281860149134872 0.0017705917581740751 0.00245008781696158 0 0 0
4 0 1 0.0008 2650 0.0025919999999999997 0 0 0 0 0
5 0 1 0.0008 2650 0.003456 0 0 0 0 0
6 0 1 0.0008 2650 0.00432 0 0 0 0 0
32 0 1 0.0008 2650 0.0025919999999999997 0.000864 0 0 0 0
33 0 1 0.0008 2650 0.003456 0.000864 0 0 0 0
34 0 1 0.0008 2650 0.00432 0.000864 0 0 0 0
60 0 1 0.0008 2650 0.0025919999999999997 0.001728 0 0 0 0
61 0 1 0.0008 2650 0.003456 0.001728 0 0 0 0
62 0 1 0.0008 2650 0.00432 0.001728 0 0 0 0
790 0 2 0.0008 2650 0.004323007612142418 6.366082325482312e-06 0.0008026402782561209 0 0 0
816 0 2 0.0008 2650 0.0026179544397389137 0.000901605651330353 0.0007986952433790925 0 0 0
817 0 2 0.0008 2650 0.0034712167272362973 0.0008345242382579738 0.0007993116517120202 0 0 0
818 0 2 0.0008 2650 0.004315440094791726 0.0008371583716793049 0.0008075400035138326 0 0 0
844 0 2 0.0008 2650 0.0025882522612808243 0.0017020921770104112 0.0007998451740135198 0 0 0
845 0 2 0.0008 2650 0.003480788480631889 0.00169892359652592 0.0008166602530104694 0 0 0
846 0 2 0.0008 2650 0.004330543668796067 0.0017041373437983985 0.0008053303004284674 0 0 0
1573 0 2 0.0008 2650 0.003509602956519226 2.4433220099560564e-05 0.0015474145366073083 0 0 0
1574 0 2 0.0008 2650 0.004311857538044163 3.24085817673184e-06 0.0016661369473521463 0 0 0
1600 0 2 0.0008 2650 0.0026510346189089345 0.0008177791749048642 0.0016440175883486305 0 0 0
1601 0 2 0.0008 2650 0.0034768715593474263 0.0008658706701900322 0.0016163929356903743 0 0 0
1602 0 2 0.0008 2650 0.00431550631528973 0.000847286878403114 0.0016895113771548884 0 0 0
1628 0 2 0.0008 2650 0.002588557483145734 0.0017302625834939877 0.00164486924178635 0 0 0
1629 0 2 0.0008 2650 0.003443873704943656 0.0017211645090206087 0.0016775420022858859 0 0 0
1630 0 2 0.0008 2650 0.004314712933996103 0.001707107949244919 0.0016518240732427878 0 0 0
2385 0 2 0.0008 2650 0.0034837073539054097 0.000883111661070011 0.0024454373138049555 0 0 0
7 0 1 0.0008 2650 0.005183999999999999 0 0 0 0 0
8 0 1 0.0008 2650 0.0060479999999999996 0 0 0 0 0
9 0 1 0.0008 2650 0.006912 0 0 0 0 0
35 0 1 0.0008 2650 0.005183999999999999 0.000864 0 0 0 0
36 0 1 0.0008 2650 0.0060479999999999996 0.000864 0 0 0 0
37 0 1 0.0008 2650 0.006912 0.000864 0 0 0 0
63 0 1 0.0008 2650 0.005183999999999999 0.001728 0 0 0 0
64 0 1 0.0008 2650 0.0060479999999999996 0.001728 0 0 0 0
65 0 1 0.0008 2650 0.006912 0.001728 0 0 0 0
791 0 2 0.0008 2650 0.0052028826058581525 1.472509782110963e-05 0.0007996410606035659 0 0 0
792 0 2 0.0008 2650 0.006052826580080183 1.3553859700279092e-05 0.0008141759987078689 0 0 0
819 0 2 0.0008 2650 0.005177197766465555 0.0008735568813429635 0.0008135521053257334 0 0 0
820 0 2 0.0008 2650 0.006058166684684185 0.0008675808004207557 0.0007999262818090776 0 0 0
821 0 2 0.0008 2650 0.006901182350837419 0.0008558570552515446 0.0007998843229769435 0 0 0
847 0 2 0.0008 2650 0.0052071932217595636 0.001728457258089612 0.00080351626798162 0 0 0
848 0 2 0.0008 2650 0.00607060664095767 0.0017196890725410855 0.0008263675227273668 0 0 0
849 0 2 0.0008 2650 0.006900815167466189 0.0017052717032555195 0.0008057803661768094 0 0 0
1575 0 2 0.0008 2650 0.005164709158116509 1.1979987667937663e-05 0.0016910773664757866 0 0 0
1576 0 2 0.0008 2650 0.006038563879121987 9.388294268844082e-07 0.001688173116263619 0 0 0
1577 0 2 0.0008 2650 0.006931992511491882 7.015715644515834e-06 0.001656165269709193 0 0 0
1603 0 2 0.0008 2650 0.00521004119032901 0.0008734739922354331 0.0016639242367669583 0 0 0
1604 0 2 0.0008 2650 0.0060611260682311855 0.0008852205396294008 0.0016910301002879373 0 0 0
1605 0 2 0.0008 2650 0.006900433774415973 0.000858937033043373 0.0016550241918495369 0 0 0
1631 0 2 0.0008 2650 0.005162299994841533 0.001719326785115449 0.001648838564600334 0 0 0
1632 0 2 0.0008 2650 0.0060635991331336085 0.0017099911132190102 0.0016728327380244492 0 0 0
1633 0 2 0.0008 2650 0.006922180406834904 0.0017084540488776403 0.0016450779693066803 0 0 0
10 0 1 0.0008 2650 0.007776 0 0 0 0 0
11 0 1 0.0008 2650 0.00864 0 0 0 0 0
12 0 1 0.0008 2650 0.009504 0 0 0 0 0
38 0 1 0.0008 2650 0.007776 0.000864 0 0 0 0
39 0 1 0.0008 2650 0.00864 0.000864 0 0 0 0
40 0 1 0.0008 2650 0.009504 0.000864 0 0 0 0
66 0 1 0.0008 2650 0.007776 0.001728 0 0 0 0
67 0 1 0.0008 2650 0.00864 0.001728 0 0 0 0
68 0 1 0.0008 2650 0.009504 0.001728 0 0 0 0
794 0 2 0.0008 2650 0.007798854602239006 6.983811241684664e-06 0.0008079691878133483 0 0 0
795 0 2 0.0008 2650 0.008661923685462961 7.5910885649499115e-06 0.0008242962225178321 0 0 0
822 0 2 0.0008 2650 0.007787138115932957 0.0008486565415494811 0.0007997729744015313 0 0 0
823 0 2 0.0008 2650 0.008635240051097757 0.0008564076615449123 0.0007999482808352932 0 0 0
824 0 2 0.0008 2650 0.009496757147455235 0.0008386331954241311 0.0007995619522915583 0 0 0
850 0 2 0.0008 2650 0.007767820753446911 0.0017074819850145333 0.0008077956981809882 0 0 0
851 0 2 0.0008 2650 0.00861927002376527 0.001731213145883267 0.0008055820863744554 0 0 0
852 0 2 0.0008 2650 0.009516972194474282 0.0017454619814297298 0.000808411562405736 0 0 0
1579 0 2 0.0008 2650 0.008641753996178215 1.545254281949874e-05 0.0016800244636323452 0 0 0
1606 0 2 0.0008 2650 0.007701179091358069 0.0008745475607153634 0.00160888131531326 0 0 0
1607 0 2 0.0008 2650 0.008634524713077811 0.0008910743218619628 0.001660980975552869 0 0 0
1608 0 2 0.0008 2650 0.00949004926930519 0.0008834527065950048 0.0016589753889752962 0 0 0
1634 0 2 0.0008 2650 0.007770842020652323 0.001743432633787967 0.0016344662099681984 0 0 0
1635 0 2 0.0008 2650 0.00862912388112723 0.0017328664119244145 0.0016548917356778913 0 0 0
1636 0 2 0.0008 2650 0.009455703165589016 0.0017710423582236589 0.0016184721807671 0 0 0
2420 0 2 0.0008 2650 0.009472087787057229 0.0017307265699145545 0.0024359277390182 0 0 0
2390 0 2 0.0008 2650 0.007708210443339537 0.0008927195170983123 0.002440814088172162 0 0 0
2364 0 2 0.0008 2650 0.0094409022649462 2.5746543286061955e-05 0.002437087180763995 0 0 0
2418 0 2 0.0008 2650 0.0077255362205272 0.0017600172589857565 0.0024524253742634226 0 0 0
2392 0 2 0.0008 2650 0.009448782754951781 0.0008754424441644858 0.002460285973789172 0 0 0
13 0 1 0.0008 2650 0.010367999999999999 0 0 0 0 0
14 0 1 0.0008 2650 0.011231999999999999 0 0 0 0 0
41 0 1 0.0008 2650 0.010367999999999999 0.000864 0 0 0 0
42 0 1 0.0008 2650 0.011231999999999999 0.000864 0 0 0 0
69 0 1 0.0008 2650 0.010367999999999999 0.001728 0 0 0 0
70 0 1 0.0008 2650 0.011231999999999999 0.001728 0 0 0 0
797 0 2 0.0008 2650 0.010353466245104886 2.2528102904085994e-05 0.000800389008122226 0 0 0
798 0 2 0.0008 2650 0.011172733152849033 2.1927508038483344e-05 0.0007992568838372254 0 0 0
825 0 2 0.0008 2650 0.010344351962160282 0.0008811788138773191 0.0008114682784584467 0 0 0
826 0 2 0.0008 2650 0.011178414809263282 0.0008760250465787866 0.0008074625584816995 0 0 0
853 0 2 0.0008 2650 0.01036639601554471 0.0017131245164773324 0.0008032568013467311 0 0 0
854 0 2 0.0008 2650 0.011246019977751784 0.0017082051999516522 0.0007996255991547467 0 0 0
1609 0 2 0.0008 2650 0.010394857054777992 0.0008694397919371996 0.001654041680618707 0 0 0
1610 0 2 0.0008 2650 0.01119777131523124 0.0008456668781830658 0.0016510613130251138 0 0 0
1637 0 2 0.0008 2650 0.010394556186253545 0.0017801181502191082 0.0016800498539023675 0 0 0
1638 0 2 0.0008 2650 0.011252743468003553 0.0016991220956808445 0.0016614634893114652 0 0 0
2366 0 2 0.0008 2650 0.011128861956908771 2.9006427846727107e-07 0.002397782231663646 0 0 0
2394 0 2 0.0008 2650 0.011186963172739896 0.0008396085835058406 0.0024575184651182834 0 0 0
2422 0 2 0.0008 2650 0.011207285892053708 0.0017213350460501965 0.0024598561676591247 0 0 0
15 0 1 0.0008 2650 0.012095999999999999 0 0 0 0 0
16 0 1 0.0008 2650 0.01296 0 0 0 0 0
17 0 1 0.0008 2650 0.013824 0 0 0 0 0
43 0 1 0.0008 2650 0.012095999999999999 0.000864 0 0 0 0
44 0 1 0.0008 2650 0.01296 0.000864 0 0 0 0
45 0 1 0.0008 2650 0.013824 0.000864 0 0 0 0
71 0 1 0.0008 2650 0.012095999999999999 0.001728 0 0 0 0
72 0 1 0.0008 2650 0.01296 0.001728 0 0 0 0
73 0 1 0.0008 2650 0.013824 0.001728 0 0 0 0
827 0 2 0.0008 2650 0.012099591457424917 0.0008911413704885446 0.0007995316366361769 0 0 0
828 0 2 0.0008 2650 0.012950429385007796 0.0008871867260154784 0.0007996428733579574 0 0 0
829 0 2 0.0008 2650 0.01382211377552216 0.0008945118741305306 0.0007994156777667535 0 0 0
855 0 2 0.0008 2650 0.012095333676731794 0.0017067258421089946 0.0008226266820174324 0 0 0
856 0 2 0.0008 2650 0.012979881382772101 0.0017253134585520952 0.0008072248400093269 0 0 0
857 0 2 0.0008 2650 0.013831527083238442 0.0017056753334632835 0.0008020751550670836 0 0 0
1611 0 2 0.0008 2650 0.012017970269239219 0.0008744817195505901 0.0016086641753448258 0 0 0
1612 0 2 0.0008 2650 0.012914152067019596 0.0008626336143164785 0.0016236739473565343 0 0 0
1613 0 2 0.0008 2650 0.01378151033958688 0.0008980006475931056 0.001617475416090552 0 0 0
1639 0 2 0.0008 2650 0.012055695330997802 0.0016956240057550346 0.0016215825302792752 0 0 0
1640 0 2 0.0008 2650 0.012976537758386742 0.001691119460699263 0.0016528360925789755 0 0 0
1641 0 2 0.0008 2650 0.013833440019773576 0.0017029942611907574 0.0016620853131630907 0 0 0
2397 0 2 0.0008 2650 0.013791807995257113 0.0009101135657156177 0.0024549910194704935 0 0 0
2423 0 2 0.0008 2650 0.012051033531661298 0.00169088639768363 0.0024564825510548813 0 0 0
2395 0 2 0.0008 2650 0.012017885902057268 0.0008429047599067032 0.0024636817664256488 0 0 0
18 0 1 0.0008 2650 0.014688 0 0 0 0 0
19 0 1 0.0008 2650 0.015552 0 0 0 0 0
20 0 1 0.0008 2650 0.016416 0 0 0 0 0
46 0 1 0.0008 2650 0.014688 0.000864 0 0 0 0
47 0 1 0.0008 2650 0.015552 0.000864 0 0 0 0
48 0 1 0.0008 2650 0.016416 0.000864 0 0 0 0
74 0 1 0.0008 2650 0.014688 0.001728 0 0 0 0
75 0 1 0.0008 2650 0.015552 0.001728 0 0 0 0
76 0 1 0.0008 2650 0.016416 0.001728 0 0 0 0
802 0 2 0.0008 2650 0.01465105688624945 3.6545042626766314e-07 0.00082881630228382 0 0 0
803 0 2 0.0008 2650 0.015478123547611964 1.6430757124032445e-05 0.0008367185219656957 0 0 0
830 0 2 0.0008 2650 0.014626124816753686 0.0008612964286833977 0.0007975985082036897 0 0 0
831 0 2 0.0008 2650 0.015472838903540304 0.0008782220357444502 0.000797789322819262 0 0 0
832 0 2 0.0008 2650 0.01642827553364937 0.0009068813605646061 0.0008020671371841968 0 0 0
858 0 2 0.0008 2650 0.014684973280012987 0.0016950860846008274 0.0007993158779947775 0 0 0
859 0 2 0.0008 2650 0.01556531809623398 0.0017723442953205492 0.000798852584838711 0 0 0
860 0 2 0.0008 2650 0.016412982881148064 0.0017410469870272184 0.0008151980706352659 0 0 0
1587 0 2 0.0008 2650 0.015509136455299105 3.668873198087551e-05 0.0016877891954619167 0 0 0
1588 0 2 0.0008 2650 0.016404376977042497 1.7726280047582613e-05 0.0015785459765301272 0 0 0
1614 0 2 0.0008 2650 0.014698690831331788 0.0008143689144416046 0.0015930886521491835 0 0 0
1615 0 2 0.0008 2650 0.01553009833794562 0.0008424790064247479 0.0016174170721342494 0 0 0
1616 0 2 0.0008 2650 0.016395640554148532 0.0008412115854595667 0.0015995073516084245 0 0 0
1642 0 2 0.0008 2650 0.01468905544719166 0.0017004969627162983 0.001642195874615547 0 0 0
1643 0 2 0.0008 2650 0.015553000111652521 0.001665305874369904 0.0016194537945180185 0 0 0
1644 0 2 0.0008 2650 0.016404500988597377 0.0016711792727585964 0.001615186599905164 0 0 0
2370 0 2 0.0008 2650 0.014668685225086605 5.780305827865515e-07 0.0018311741530559079 0 0 0
2428 0 2 0.0008 2650 0.01638950617272805 0.0016973448451750557 0.002449797642218324 0 0 0
2398 0 2 0.0008 2650 0.014683194764110608 0.0008398805327473845 0.0024563688504276467 0 0 0
2399 0 2 0.0008 2650 0.015545919312376942 0.0008761614489340941 0.002423952636007104 0 0 0
2400 0 2 0.0008 2650 0.016434591310551253 0.0008636758273197707 0.002456333363788525 0 0 0
21 0 1 0.0008 2650 0.01728 0 0 0 0 0
22 0 1 0.0008 2650 0.018144 0 0 0 0 0
23 0 1 0.0008 2650 0.019008 0 0 0 0 0
49 0 1 0.0008 2650 0.01728 0.000864 0 0 0 0
50 0 1 0.0008 2650 0.018144 0.000864 0 0 0 0
51 0 1 0.0008 2650 0.019008 0.000864 0 0 0 0
77 0 1 0.0008 2650 0.01728 0.001728 0 0 0 0
78 0 1 0.0008 2650 0.018144 0.001728 0 0 0 0
79 0 1 0.0008 2650 0.019008 0.001728 0 0 0 0
805 0 2 0.0008 2650 0.017273591104640783 3.626133389235103e-05 0.0007991520506922883 0 0 0
807 0 2 0.0008 2650 0.019028876872067807 9.366883694702228e-07 0.0007997696693975489 0 0 0
833 0 2 0.0008 2650 0.017285978746835146 0.0008968387694390155 0.0008077600768362457 0 0 0
834 0 2 0.0008 2650 0.018173009990622716 0.0008045300973295845 0.0007975376746606047 0 0 0
835 0 2 0.0008 2650 0.019034722441236048 0.0009081563048177882 0.0007983394331949096 0 0 0
861 0 2 0.0008 2650 0.0172881304672588 0.001754885901989855 0.0007995091990689678 0 0 0
862 0 2 0.0008 2650 0.018118620215825942 0.0017691198713694863 0.0007985720300853391 0 0 0
863 0 2 0.0008 2650 0.01898385563651074 0.0017432713937851872 0.000799488132038481 0 0 0
1589 0 2 0.0008 2650 0.017262937945771425 6.2509690476921775e-06 0.0016140246912870195 0 0 0
1590 0 2 0.0008 2650 0.01813961766214097 6.590926921597075e-07 0.0016546179361621068 0 0 0
1591 0 2 0.0008 2650 0.018969892630625953 1.7875117027949066e-05 0.0015991075771154006 0 0 0
1617 0 2 0.0008 2650 0.017279864535968144 0.0008663714727973867 0.0016186493911122108 0 0 0
1618 0 2 0.0008 2650 0.01813818329822186 0.0008597103993949451 0.001639749744195922 0 0 0
1619 0 2 0.0008 2650 0.019028745689034687 0.0008525339495317205 0.0016519699192730742 0 0 0
1645 0 2 0.0008 2650 0.0172633556366015 0.001671180265651802 0.001594880329281652 0 0 0
1646 0 2 0.0008 2650 0.018183788122998704 0.0016569766131627735 0.0015901983089603204 0 0 0
1647 0 2 0.0008 2650 0.019041899775099933 0.0016790555836199703 0.001594790389885183 0 0 0
2431 0 2 0.0008 2650 0.019038588668000657 0.001662142944304473 0.0024435864777117232 0 0 0
2430 0 2 0.0008 2650 0.018211839470614378 0.0016864151262183525 0.002449041617020011 0 0 0
2373 0 2 0.0008 2650 0.01727472006157651 2.901669686646549e-05 0.0024388382947219387 0 0 0
2429 0 2 0.0008 2650 0.01729136594475782 0.0017198795835895672 0.002452989389415776 0 0 0
2402 0 2 0.0008 2650 0.018157671130573576 0.0008683276218793169 0.002445076861552442 0 0 0
2401 0 2 0.0008 2650 0.01731357925564884 0.0008884511068708291 0.0024535129786587926 0 0 0
24 0 1 0.0008 2650 0.019872 0 0 0 0 0
25 0 1 0.0008 2650 0.020735999999999997 0 0 0 0 0
52 0 1 0.0008 2650 0.019872 0.000864 0 0 0 0
53 0 1 0.0008 2650 0.020735999999999997 0.000864 0 0 0 0
80 0 1 0.0008 2650 0.019872 0.001728 0 0 0 0
81 0 1 0.0008 2650 0.020735999999999997 0.001728 0 0 0 0
808 0 2 0.0008 2650 0.019879882812812014 1.421001542467339e-05 0.0008053186133548571 0 0 0
809 0 2 0.0008 2650 0.020734478995332085 1.2512457711544876e-05 0.0008203972333095082 0 0 0
836 0 2 0.0008 2650 0.019864334143878434 0.0008410585818078079 0.0008001223581060974 0 0 0
837 0 2 0.0008 2650 0.020730195335042743 0.0008497355717669039 0.0008173336860983017 0 0 0
864 0 2 0.0008 2650 0.019894923989331355 0.0017163872474206972 0.000808980561906764 0 0 0
865 0 2 0.0008 2650 0.020739596564278255 0.0017447570828412996 0.0007998148297866976 0 0 0
1620 0 2 0.0008 2650 0.019854323935166205 0.0008810275939871367 0.001654399279367763 0 0 0
1621 0 2 0.0008 2650 0.02076549925209302 0.0008648137549778203 0.0016597672888124609 0 0 0
1648 0 2 0.0008 2650 0.01985958497985197 0.0017151785929782576 0.0016509554130382893 0 0 0
1649 0 2 0.0008 2650 0.020725180858070288 0.0017142674295521055 0.0016425348505759894 0 0 0
2433 0 2 0.0008 2650 0.020756954650463545 0.0017521372004167875 0.0024410052603781 0 0 0
2404 0 2 0.0008 2650 0.01990236086291252 0.0008576901413347526 0.002462939726311028 0 0 0
2406 0 2 0.0008 2650 0.021594850829268087 0.0007839325933872585 0.0024597929510415824 0 0 0
2405 0 2 0.0008 2650 0.020758384316565615 0.0008949779471803115 0.0024675722102320764 0 0 0
2377 0 2 0.0008 2650 0.020771562619464327 2.463585263536468e-05 0.002468434567023226 0 0 0
1650 0 2 0.0008 2650 0.02162879507277672 0.0017460676464586772 0.001608005541258035 0 0 0
810 0 2 0.0008 2650 0.021616909289975218 1.703562127918609e-05 0.0008096410289837792 0 0 0
1622 0 2 0.0008 2650 0.021606773064340123 0.0008796677473928345 0.0016553640793212584 0 0 0
838 0 2 0.0008 2650 0.021609699185488742 0.0008839991066393415 0.0008247660541990542 0 0 0
26 0 1 0.0008 2650 0.021599999999999998 0 0 0 0 0
27 0 1 0.0008 2650 0.022463999999999998 0 0 0 0 0
28 0 1 0.0008 2650 0.023327999999999998 0 0 0 0 0
54 0 1 0.0008 2650 0.021599999999999998 0.000864 0 0 0 0
55 0 1 0.0008 2650 0.022463999999999998 0.000864 0 0 0 0
56 0 1 0.0008 2650 0.023327999999999998 0.000864 0 0 0 0
82 0 1 0.0008 2650 0.021599999999999998 0.001728 0 0 0 0
83 0 1 0.0008 2650 0.022463999999999998 0.001728 0 0 0 0
84 0 1 0.0008 2650 0.023327999999999998 0.001728 0 0 0 0
812 0 2 0.0008 2650 0.023325177781848876 1.1584837010007771e-05 0.0007999106229875917 0 0 0
839 0 2 0.0008 2650 0.022467339454906705 0.0008694178360987155 0.000823585310005347 0 0 0
840 0 2 0.0008 2650 0.023323683885247144 0.0008738372788936135 0.0008217475611019478 0 0 0
866 0 2 0.0008 2650 0.021614475748876393 0.0017187558202353228 0.0007998149600216007 0 0 0
867 0 2 0.0008 2650 0.022466624119678473 0.001730437992331058 0.0008004199557487757 0 0 0
868 0 2 0.0008 2650 0.0233581657689497 0.0017595248599473266 0.0007988378627274115 0 0 0
1594 0 2 0.0008 2650 0.021630820484858832 1.488919331641838e-05 0.0016656971001486078 0 0 0
1595 0 2 0.0008 2650 0.022459636591876404 2.1710868507459504e-05 0.0016971019629870739 0 0 0
1623 0 2 0.0008 2650 0.022457169025681952 0.0008747930465236671 0.0016520484580981808 0 0 0
1624 0 2 0.0008 2650 0.023339168359812288 0.0008820200175161177 0.0016604006958097924 0 0 0
1651 0 2 0.0008 2650 0.02248756874432764 0.0017621491732504107 0.0015995162574539256 0 0 0
1652 0 2 0.0008 2650 0.023388937453438837 0.0017325161999590518 0.001597788062114083 0 0 0
2408 0 2 0.0008 2650 0.023396161876604555 0.0009410176257771382 0.002456757310379365 0 0 0
2435 0 2 0.0008 2650 0.022512159999834348 0.0017562178137773047 0.0024538504094619266 0 0 0
2436 0 2 0.0008 2650 0.023346635361186675 0.0017780821501079307 0.0024562883186672146 0 0 0
2434 0 2 0.0008 2650 0.021622812592227893 0.0017300111443135093 0.002460562278594175 0 0 0
2407 0 2 0.0008 2650 0.022449051516261843 0.0008585857469425517 0.0024547359624911085 0 0 0
85 0 1 0.0008 2650 0 0.0025919999999999997 0 0 0 0
86 0 1 0.0008 2650 0.000864 0.0025919999999999997 0 0 0 0
87 0 1 0.0008 2650 0.001728 0.0025919999999999997 0 0 0 0
113 0 1 0.0008 2650 0 0.003456 0 0 0 0
114 0 1 0.0008 2650 0.000864 0.003456 0 0 0 0
115 0 1 0.0008 2650 0.001728 0.003456 0 0 0 0
141 0 1 0.0008 2650 0 0.00432 0 0 0 0
142 0 1 0.0008 2650 0.000864 0.00432 0 0 0 0
143 0 1 0.0008 2650 0.001728 0.00432 0 0 0 0
870 0 2 0.0008 2650 0.0008515029044907333 0.0025813212068147625 0.0008008033131696263 0 0 0
871 0 2 0.0008 2650 0.0017099124506336904 0.002569551672657322 0.0008111264504076179 0 0 0
897 0 2 0.0008 2650 1.5529173902439127e-05 0.0034651160762284626 0.0008079911810166722 0 0 0
898 0 2 0.0008 2650 0.0008825694532603601 0.0034311712918344227 0.00080011054868772 0 0 0
899 0 2 0.0008 2650 0.0016862216010732924 0.003432338827960422 0.0007985578580207706 0 0 0
926 0 2 0.0008 2650 0.0008674003324298207 0.004319049980786308 0.0007999917430180324 0 0 0
927 0 2 0.0008 2650 0.0016691668435737904 0.004277390067092664 0.0007966950724179057 0 0 0
1654 0 2 0.0008 2650 0.0008668146256100248 0.002582181112361479 0.0016534738118804645 0 0 0
1655 0 2 0.0008 2650 0.001747121032188347 0.0026036518028475005 0.0016736063952451855 0 0 0
1681 0 2 0.0008 2650 2.4823874945998752e-05 0.003441906521306173 0.0016622185161520935 0 0 0
1682 0 2 0.0008 2650 0.0008727773128797009 0.003469098129251849 0.0016428448765181225 0 0 0
1683 0 2 0.0008 2650 0.0017264068038662169 0.003428910453296932 0.0016714804777694112 0 0 0
1709 0 2 0.0008 2650 1.757950776366802e-05 0.0043007185617545685 0.0016777663853172926 0 0 0
1710 0 2 0.0008 2650 0.0009209445611120765 0.004349991717629163 0.0016101637580205504 0 0 0
1711 0 2 0.0008 2650 0.001767177699346156 0.00429674037217733 0.0016065489622107655 0 0 0
88 0 1 0.0008 2650 0.0025919999999999997 0.0025919999999999997 0 0 0 0
89 0 1 0.0008 2650 0.003456 0.0025919999999999997 0 0 0 0
90 0 1 0.0008 2650 0.00432 0.0025919999999999997 0 0 0 0
116 0 1 0.0008 2650 0.0025919999999999997 0.003456 0 0 0 0
117 0 1 0.0008 2650 0.003456 0.003456 0 0 0 0
118 0 1 0.0008 2650 0.00432 0.003456 0 0 0 0
144 0 1 0.0008 2650 0.0025919999999999997 0.00432 0 0 0 0
145 0 1 0.0008 2650 0.003456 0.00432 0 0 0 0
146 0 1 0.0008 2650 0.00432 0.00432 0 0 0 0
872 0 2 0.0008 2650 0.0025813381891131534 0.0025855974098251988 0.0008000098336986783 0 0 0
873 0 2 0.0008 2650 0.0034508783328209836 0.0025869194148380632 0.0008151940742823678 0 0 0
874 0 2 0.0008 2650 0.004311729576375405 0.0026083064780410606 0.0007999055136486142 0 0 0
900 0 2 0.0008 2650 0.0026183618566027653 0.003441182893645851 0.00079942670892369 0 0 0
901 0 2 0.0008 2650 0.003472434955172606 0.003441537494030169 0.0008177437287814201 0 0 0
902 0 2 0.0008 2650 0.004370893329115044 0.0034068411098805117 0.0007968639128050763 0 0 0
928 0 2 0.0008 2650 0.0026444388109931674 0.004316003669638369 0.0007982666110877142 0 0 0
929 0 2 0.0008 2650 0.0034563773881082136 0.004271378892490657 0.000798521010210731 0 0 0
930 0 2 0.0008 2650 0.004309101422837038 0.004283775863084718 0.0008035562942940992 0 0 0
1656 0 2 0.0008 2650 0.002580795648942428 0.0025982510333929995 0.0016450092801391578 0 0 0
1657 0 2 0.0008 2650 0.0034395262591471404 0.002582853799301113 0.0016573053146900164 0 0 0
1658 0 2 0.0008 2650 0.004301964434693406 0.0025707121731629767 0.0016562075158927734 0 0 0
1684 0 2 0.0008 2650 0.002586794585778499 0.003468239802036493 0.00166667230061312 0 0 0
1685 0 2 0.0008 2650 0.0034425798435284123 0.003445383411466586 0.0016385108163634566 0 0 0
1686 0 2 0.0008 2650 0.004357396086998441 0.0034112893686635342 0.0016577866343561209 0 0 0
1712 0 2 0.0008 2650 0.002619567659346545 0.004300564751106052 0.001654923066840297 0 0 0
1713 0 2 0.0008 2650 0.0034544697132990513 0.004292469188062524 0.0016057338527360647 0 0 0
1714 0 2 0.0008 2650 0.004310330404440514 0.004243868990151878 0.0016025988755735859 0 0 0
2469 0 2 0.0008 2650 0.00349884816511031 0.003463285366305467 0.0024430604191631963 0 0 0
2441 0 2 0.0008 2650 0.003482896656961564 0.0026267567160690244 0.00245495135703866 0 0 0
2470 0 2 0.0008 2650 0.004349747299431964 0.0034482726645609137 0.0024568939781240474 0 0 0
2442 0 2 0.0008 2650 0.004331988734927726 0.0026112310219460833 0.0024553554849326737 0 0 0
2498 0 2 0.0008 2650 0.0043236984159047585 0.0042911345756557195 0.0024482773822068413 0 0 0
2468 0 2 0.0008 2650 0.0026430423224980846 0.0034188364701226684 0.002463415440359778 0 0 0
91 0 1 0.0008 2650 0.005183999999999999 0.0025919999999999997 0 0 0 0
92 0 1 0.0008 2650 0.0060479999999999996 0.0025919999999999997 0 0 0 0
93 0 1 0.0008 2650 0.006912 0.0025919999999999997 0 0 0 0
119 0 1 0.0008 2650 0.005183999999999999 0.003456 0 0 0 0
120 0 1 0.0008 2650 0.0060479999999999996 0.003456 0 0 0 0
121 0 1 0.0008 2650 0.006912 0.003456 0 0 0 0
147 0 1 0.0008 2650 0.005183999999999999 0.00432 0 0 0 0
148 0 1 0.0008 2650 0.0060479999999999996 0.00432 0 0 0 0
149 0 1 0.0008 2650 0.006912 0.00432 0 0 0 0
875 0 2 0.0008 2650 0.005164795436816929 0.0025728897912428183 0.0008160979878241856 0 0 0
876 0 2 0.0008 2650 0.006049188005604919 0.0025668023235879485 0.0008000205419700102 0 0 0
877 0 2 0.0008 2650 0.006923885891134518 0.002591299428606833 0.0008032345244918844 0 0 0
903 0 2 0.0008 2650 0.005221750538869316 0.003482213398643828 0.0007996361107468929 0 0 0
904 0 2 0.0008 2650 0.006053944089919266 0.003510529043584412 0.0007981172904749942 0 0 0
905 0 2 0.0008 2650 0.00697589503842974 0.0034606449144506694 0.000797440522136514 0 0 0
931 0 2 0.0008 2650 0.005155884418034949 0.00431608887086165 0.000799537947476969 0 0 0
932 0 2 0.0008 2650 0.006054625759676489 0.004332231210851012 0.0007998772503452713 0 0 0
933 0 2 0.0008 2650 0.006924236957285642 0.004320874175475249 0.0007999058981327237 0 0 0
1659 0 2 0.0008 2650 0.0051757139392970474 0.0025724634640906826 0.0016610082884608625 0 0 0
1660 0 2 0.0008 2650 0.006031208287668852 0.0025758568736453163 0.0016507018381949415 0 0 0
1661 0 2 0.0008 2650 0.006918031653794956 0.002559076459460941 0.0016031022878595688 0 0 0
1687 0 2 0.0008 2650 0.005213436829934303 0.003463571934484673 0.0016629427069282936 0 0 0
1688 0 2 0.0008 2650 0.006022124847707513 0.0034749353050586122 0.0015991448836111543 0 0 0
1689 0 2 0.0008 2650 0.006966325753000612 0.003489319418041361 0.001641970193323302 0 0 0
1715 0 2 0.0008 2650 0.005167061041552754 0.004336951060680217 0.001660645346042348 0 0 0
1716 0 2 0.0008 2650 0.00603533863352332 0.004314940581199522 0.0016424334709341328 0 0 0
1717 0 2 0.0008 2650 0.006955535218346987 0.004337814909672041 0.0016497662975719662 0 0 0
2501 0 2 0.0008 2650 0.006975659826821876 0.004365651891552435 0.002463123078881548 0 0 0
2472 0 2 0.0008 2650 0.006018073340890431 0.003463437586070633 0.0024230000819040233 0 0 0
2445 0 2 0.0008 2650 0.0069040952391267625 0.0025871363256932314 0.0024523897280365036 0 0 0
2473 0 2 0.0008 2650 0.006864057431390593 0.0034697413815923442 0.002459943547970693 0 0 0
2499 0 2 0.0008 2650 0.0051209441334360405 0.004353450131589699 0.0024714224871876644 0 0 0
94 0 1 0.0008 2650 0.007776 0.0025919999999999997 0 0 0 0
95 0 1 0.0008 2650 0.00864 0.0025919999999999997 0 0 0 0
96 0 1 0.0008 2650 0.009504 0.0025919999999999997 0 0 0 0
122 0 1 0.0008 2650 0.007776 0.003456 0 0 0 0
123 0 1 0.0008 2650 0.00864 0.003456 0 0 0 0
124 0 1 0.0008 2650 0.009504 0.003456 0 0 0 0
150 0 1 0.0008 2650 0.007776 0.00432 0 0 0 0
151 0 1 0.0008 2650 0.00864 0.00432 0 0 0 0
152 0 1 0.0008 2650 0.009504 0.00432 0 0 0 0
878 0 2 0.0008 2650 0.007741539102707802 0.0025705900863661206 0.0007989670344499913 0 0 0
879 0 2 0.0008 2650 0.008614103902076854 0.0025924719157991894 0.0008169402519520601 0 0 0
880 0 2 0.0008 2650 0.009529267223530879 0.0025798477361971424 0.00080021478268805 0 0 0
906 0 2 0.0008 2650 0.007788868024637565 0.003428673032007079 0.0008221593642735498 0 0 0
907 0 2 0.0008 2650 0.008649468191551827 0.003432461266437359 0.0008104918211592508 0 0 0
908 0 2 0.0008 2650 0.009488001681125785 0.003442559675245171 0.0008119335084915857 0 0 0
934 0 2 0.0008 2650 0.007760850279606251 0.004312497373887706 0.0007998213276250897 0 0 0
935 0 2 0.0008 2650 0.008649780350354514 0.004287655229564488 0.0007997562894248777 0 0 0
936 0 2 0.0008 2650 0.009502534996423739 0.004299060109697537 0.0008129074373511165 0 0 0
1662 0 2 0.0008 2650 0.007771306802012236 0.002556881211934704 0.0015982926167927472 0 0 0
1663 0 2 0.0008 2650 0.008637664890422612 0.002591087556193425 0.0016343162174389293 0 0 0
1664 0 2 0.0008 2650 0.009494137541140417 0.00259054801702089 0.0016395301061283714 0 0 0
1690 0 2 0.0008 2650 0.007855210670042677 0.003491765207989094 0.0016331992017516784 0 0 0
1691 0 2 0.0008 2650 0.008708784268363976 0.003547691482325979 0.0016285990423680168 0 0 0
1692 0 2 0.0008 2650 0.009534352997260824 0.0034605514546406906 0.001647640042642924 0 0 0
1718 0 2 0.0008 2650 0.007816151654993917 0.0043453282894034655 0.0016391347292079154 0 0 0
1719 0 2 0.0008 2650 0.008659275494356775 0.004406718386612606 0.001621975054143759 0 0 0
1720 0 2 0.0008 2650 0.009579144419808538 0.004401327961933537 0.001606916941356883 0 0 0
2448 0 2 0.0008 2650 0.009508877180340543 0.0025859376131163827 0.0024404771172885807 0 0 0
2476 0 2 0.0008 2650 0.009486165976644123 0.0034490309779905515 0.0024488212306096983 0 0 0
2474 0 2 0.0008 2650 0.00776189104248304 0.0034517312283973097 0.002427982781752685 0 0 0
2475 0 2 0.0008 2650 0.008644264967482284 0.003450661985923554 0.002433853009004272 0 0 0
2503 0 2 0.0008 2650 0.008634758971839577 0.0043062108794788435 0.00241527356471281 0 0 0
2446 0 2 0.0008 2650 0.007767494878625456 0.0026095568602309323 0.0024529242273232973 0 0 0
2447 0 2 0.0008 2650 0.008619120327778873 0.0025962065022402106 0.0024545819770060776 0 0 0